 Entering Gaussian System, Link 0=/mlatom/software/Gaussian/g16-avx2/g16
 Input=gaussian.com
 Output=gaussian.log
 Initial command:
 /mlatom/software/Gaussian/g16-avx2/l1.exe "/mlatom/home/huangyh/projects/delta_learning/paper/revision1/Starting_from_ub3lyp_d4/da/b3lyp/b3lyp/ts/irc/p_calcall/Gau-125145.inp" -scrdir="/mlatom/home/huangyh/projects/delta_learning/paper/revision1/Starting_from_ub3lyp_d4/da/b3lyp/b3lyp/ts/irc/p_calcall/"
 Entering Link 1 = /mlatom/software/Gaussian/g16-avx2/l1.exe PID=    125146.
  
 Copyright (c) 1988,1990,1992,1993,1995,1998,2003,2009,2016,
            Gaussian, Inc.  All Rights Reserved.
  
 This is part of the Gaussian(R) 16 program.  It is based on
 the Gaussian(R) 09 system (copyright 2009, Gaussian, Inc.),
 the Gaussian(R) 03 system (copyright 2003, Gaussian, Inc.),
 the Gaussian(R) 98 system (copyright 1998, Gaussian, Inc.),
 the Gaussian(R) 94 system (copyright 1995, Gaussian, Inc.),
 the Gaussian 92(TM) system (copyright 1992, Gaussian, Inc.),
 the Gaussian 90(TM) system (copyright 1990, Gaussian, Inc.),
 the Gaussian 88(TM) system (copyright 1988, Gaussian, Inc.),
 the Gaussian 86(TM) system (copyright 1986, Carnegie Mellon
 University), and the Gaussian 82(TM) system (copyright 1983,
 Carnegie Mellon University). Gaussian is a federally registered
 trademark of Gaussian, Inc.
  
 This software contains proprietary and confidential information,
 including trade secrets, belonging to Gaussian, Inc.
  
 This software is provided under written license and may be
 used, copied, transmitted, or stored only in accord with that
 written license.
  
 The following legend is applicable only to US Government
 contracts under FAR:
  
                    RESTRICTED RIGHTS LEGEND
  
 Use, reproduction and disclosure by the US Government is
 subject to restrictions as set forth in subparagraphs (a)
 and (c) of the Commercial Computer Software - Restricted
 Rights clause in FAR 52.227-19.
  
 Gaussian, Inc.
 340 Quinnipiac St., Bldg. 40, Wallingford CT 06492
  
  
 ---------------------------------------------------------------
 Warning -- This program may not be used in any manner that
 competes with the business of Gaussian, Inc. or will provide
 assistance to any competitor of Gaussian, Inc.  The licensee
 of this program is prohibited from giving any competitor of
 Gaussian, Inc. access to this program.  By using this program,
 the user acknowledges that Gaussian, Inc. is engaged in the
 business of creating and licensing software in the field of
 computational chemistry and represents and warrants to the
 licensee that it is not a competitor of Gaussian, Inc. and that
 it will not use this program in any manner prohibited above.
 ---------------------------------------------------------------
  

 Cite this work as:
 Gaussian 16, Revision A.03,
 M. J. Frisch, G. W. Trucks, H. B. Schlegel, G. E. Scuseria, 
 M. A. Robb, J. R. Cheeseman, G. Scalmani, V. Barone, 
 G. A. Petersson, H. Nakatsuji, X. Li, M. Caricato, A. V. Marenich, 
 J. Bloino, B. G. Janesko, R. Gomperts, B. Mennucci, H. P. Hratchian, 
 J. V. Ortiz, A. F. Izmaylov, J. L. Sonnenberg, D. Williams-Young, 
 F. Ding, F. Lipparini, F. Egidi, J. Goings, B. Peng, A. Petrone, 
 T. Henderson, D. Ranasinghe, V. G. Zakrzewski, J. Gao, N. Rega, 
 G. Zheng, W. Liang, M. Hada, M. Ehara, K. Toyota, R. Fukuda, 
 J. Hasegawa, M. Ishida, T. Nakajima, Y. Honda, O. Kitao, H. Nakai, 
 T. Vreven, K. Throssell, J. A. Montgomery, Jr., J. E. Peralta, 
 F. Ogliaro, M. J. Bearpark, J. J. Heyd, E. N. Brothers, K. N. Kudin, 
 V. N. Staroverov, T. A. Keith, R. Kobayashi, J. Normand, 
 K. Raghavachari, A. P. Rendell, J. C. Burant, S. S. Iyengar, 
 J. Tomasi, M. Cossi, J. M. Millam, M. Klene, C. Adamo, R. Cammi, 
 J. W. Ochterski, R. L. Martin, K. Morokuma, O. Farkas, 
 J. B. Foresman, and D. J. Fox, Gaussian, Inc., Wallingford CT, 2016.
 
 ******************************************
 Gaussian 16:  ES64L-G16RevA.03 25-Dec-2016
                26-May-2025 
 ******************************************
 %nproc=1
 Will use up to    1 processors via shared memory.
 ----------------------------------------------------------------------
 #p Freq external='/mlatom/software/miniconda3/bin/python /mlatom/softw
 are/mlatom_xacs/mlatom/interfaces/gaussian_interface.py model_predict_
 kwargs'
 ----------------------------------------------------------------------
 1/10=4,18=10,30=1,38=1/1,3;
 2/12=2,17=6,18=5,40=1/2;
 3/11=9,25=1,30=1,41=9900000,43=2,71=2,140=1/1;
 4/20=17,22=2,24=3,113=1,114=1/2;
 6/7=2,8=2,9=2,10=2/1;
 7/8=1,25=1,44=-1/16;
 1/10=4,18=10,30=1/3;
 99//99;
 Leave Link    1 at Mon May 26 07:18:34 2025, MaxMem=           0 cpu:               0.0 elap:               0.3
 (Enter /mlatom/software/Gaussian/g16-avx2/l101.exe)
 ------------------------------------
 d7cb446f-8f9e-4f56-ae12-2ef0924d0e2b
 ------------------------------------
 Symbolic Z-matrix:
 Charge =  0 Multiplicity = 1
 C                     1.49878   0.04777  -0.11085 
 C                     0.66611   1.30614  -0.05676 
 H                     2.38702   0.16354   0.52593 
 H                     1.88807  -0.09026  -1.13252 
 H                     1.19965   2.25468  -0.11206 
 C                    -0.66612   1.30614   0.05677 
 C                    -1.49879   0.04775   0.11083 
 H                    -1.19967   2.25467   0.11209 
 H                    -2.387     0.16352  -0.52597 
 H                    -1.8881   -0.09027   1.1325 
 C                     0.69801  -1.19225   0.31892 
 C                    -0.698    -1.19226  -0.31891 
 H                     0.59237  -1.19177   1.41285 
 H                     1.2444   -2.10606   0.05494 
 H                    -0.59235  -1.1918   -1.41284 
 H                    -1.24437  -2.10608  -0.05491 
 
 ITRead=  0  0  0  0  0  0  0  0  0  0  0  0  0  0  0  0
 MicOpt= -1 -1 -1 -1 -1 -1 -1 -1 -1 -1 -1 -1 -1 -1 -1 -1
 NAtoms=     16 NQM=       16 NQMF=       0 NMMI=      0 NMMIF=      0
                NMic=       0 NMicF=      0.
                    Isotopes and Nuclear Properties:
 (Nuclear quadrupole moments (NQMom) in fm**2, nuclear magnetic moments (NMagM)
  in nuclear magnetons)

  Atom         1           2           3           4           5           6           7           8           9          10
 IAtWgt=          12          12           1           1           1          12          12           1           1           1
 AtmWgt=  12.0000000  12.0000000   1.0078250   1.0078250   1.0078250  12.0000000  12.0000000   1.0078250   1.0078250   1.0078250
 NucSpn=           0           0           1           1           1           0           0           1           1           1
 AtZEff=  -0.0000000  -0.0000000  -0.0000000  -0.0000000  -0.0000000  -0.0000000  -0.0000000  -0.0000000  -0.0000000  -0.0000000
 NQMom=    0.0000000   0.0000000   0.0000000   0.0000000   0.0000000   0.0000000   0.0000000   0.0000000   0.0000000   0.0000000
 NMagM=    0.0000000   0.0000000   2.7928460   2.7928460   2.7928460   0.0000000   0.0000000   2.7928460   2.7928460   2.7928460
 AtZNuc=   6.0000000   6.0000000   1.0000000   1.0000000   1.0000000   6.0000000   6.0000000   1.0000000   1.0000000   1.0000000

  Atom        11          12          13          14          15          16
 IAtWgt=          12          12           1           1           1           1
 AtmWgt=  12.0000000  12.0000000   1.0078250   1.0078250   1.0078250   1.0078250
 NucSpn=           0           0           1           1           1           1
 AtZEff=  -0.0000000  -0.0000000  -0.0000000  -0.0000000  -0.0000000  -0.0000000
 NQMom=    0.0000000   0.0000000   0.0000000   0.0000000   0.0000000   0.0000000
 NMagM=    0.0000000   0.0000000   2.7928460   2.7928460   2.7928460   2.7928460
 AtZNuc=   6.0000000   6.0000000   1.0000000   1.0000000   1.0000000   1.0000000
 Leave Link  101 at Mon May 26 07:18:35 2025, MaxMem=   104857600 cpu:               0.1 elap:               0.2
 (Enter /mlatom/software/Gaussian/g16-avx2/l103.exe)

 GradGradGradGradGradGradGradGradGradGradGradGradGradGradGradGradGradGrad
 Berny optimization.
 Initialization pass.
 Trust Radius=3.00D-01 FncErr=1.00D-07 GrdErr=1.00D-07 EigMax=2.50D+02 EigMin=1.00D-04
 Number of steps in this run=      2 maximum allowed number of steps=      2.
 GradGradGradGradGradGradGradGradGradGradGradGradGradGradGradGradGradGrad

 Leave Link  103 at Mon May 26 07:18:35 2025, MaxMem=   104857600 cpu:               0.0 elap:               0.1
 (Enter /mlatom/software/Gaussian/g16-avx2/l202.exe)
                          Input orientation:                          
 ---------------------------------------------------------------------
 Center     Atomic      Atomic             Coordinates (Angstroms)
 Number     Number       Type             X           Y           Z
 ---------------------------------------------------------------------
      1          6           0        1.498783    0.047768   -0.110849
      2          6           0        0.666111    1.306145   -0.056760
      3          1           0        2.387018    0.163545    0.525930
      4          1           0        1.888067   -0.090261   -1.132524
      5          1           0        1.199647    2.254681   -0.112063
      6          6           0       -0.666123    1.306139    0.056766
      7          6           0       -1.498787    0.047754    0.110833
      8          1           0       -1.199667    2.254670    0.112085
      9          1           0       -2.387004    0.163523   -0.525972
     10          1           0       -1.888096   -0.090275    1.132498
     11          6           0        0.698013   -1.192245    0.318923
     12          6           0       -0.697998   -1.192257   -0.318913
     13          1           0        0.592366   -1.191769    1.412855
     14          1           0        1.244397   -2.106061    0.054937
     15          1           0       -0.592348   -1.191798   -1.412844
     16          1           0       -1.244372   -2.106075   -0.054912
 ---------------------------------------------------------------------
                    Distance matrix (angstroms):
                    1          2          3          4          5
     1  C    0.000000
     2  C    1.509895   0.000000
     3  H    1.099024   2.146296   0.000000
     4  H    1.102004   2.144853   1.750383   0.000000
     5  H    2.227094   1.089697   2.487918   2.648398   0.000000
     6  C    2.509664   1.337062   3.293526   3.144556   2.099842
     7  C    3.005756   2.509665   3.909629   3.610507   3.493101
     8  H    3.493101   2.099842   4.172336   4.072082   2.409761
     9  H    3.909613   3.293517   4.888537   4.325337   4.172329
    10  H    3.610529   3.144566   4.325385   4.403377   4.072089
    11  C    1.537391   2.526680   2.175720   2.176533   3.509799
    12  C    2.531166   2.858589   3.474088   2.926446   3.940207
    13  H    2.163265   2.899099   2.417495   3.061227   3.817352
    14  H    2.175127   3.462664   2.584285   2.426484   4.364168
    15  H    2.757634   3.108441   3.804264   2.728447   4.096523
    16  H    3.488132   3.910651   4.321521   3.877747   4.999269
                    6          7          8          9         10
     6  C    0.000000
     7  C    1.509896   0.000000
     8  H    1.089697   2.227095   0.000000
     9  H    2.146296   1.099024   2.487928   0.000000
    10  H    2.144852   1.102004   2.648385   1.750384   0.000000
    11  C    2.858587   2.531172   3.940203   3.474088   2.926466
    12  C    2.526685   1.537392   3.509807   2.175720   2.176532
    13  H    3.108426   2.757644   4.096501   3.804275   2.728476
    14  H    3.910653   3.488138   4.999269   4.321521   3.877763
    15  H    2.899119   2.163265   3.817380   2.417484   3.061222
    16  H    3.462665   2.175127   4.364171   2.584295   2.426474
                   11         12         13         14         15
    11  C    0.000000
    12  C    1.534823   0.000000
    13  H    1.099021   2.159643   0.000000
    14  H    1.096943   2.178922   1.762105   0.000000
    15  H    2.159641   1.099021   3.064004   2.522675   0.000000
    16  H    2.178921   1.096943   2.522677   2.491192   1.762106
                   16
    16  H    0.000000
 Stoichiometry    C6H10
 Framework group  C1[X(C6H10)]
 Deg. of freedom    42
 Full point group                 C1      NOp   1
 Largest Abelian subgroup         C1      NOp   1
 Largest concise Abelian subgroup C1      NOp   1
                         Standard orientation:                         
 ---------------------------------------------------------------------
 Center     Atomic      Atomic             Coordinates (Angstroms)
 Number     Number       Type             X           Y           Z
 ---------------------------------------------------------------------
      1          6           0       -1.498783    0.047768    0.110849
      2          6           0       -0.666111    1.306145    0.056760
      3          1           0       -2.387018    0.163545   -0.525930
      4          1           0       -1.888067   -0.090261    1.132524
      5          1           0       -1.199647    2.254681    0.112063
      6          6           0        0.666123    1.306139   -0.056766
      7          6           0        1.498787    0.047754   -0.110833
      8          1           0        1.199667    2.254670   -0.112085
      9          1           0        2.387004    0.163523    0.525972
     10          1           0        1.888096   -0.090275   -1.132498
     11          6           0       -0.698013   -1.192245   -0.318923
     12          6           0        0.697998   -1.192257    0.318913
     13          1           0       -0.592366   -1.191769   -1.412855
     14          1           0       -1.244397   -2.106061   -0.054937
     15          1           0        0.592348   -1.191798    1.412844
     16          1           0        1.244372   -2.106075    0.054912
 ---------------------------------------------------------------------
 Rotational constants (GHZ):           4.7143696           4.5258363           2.5415822
 Leave Link  202 at Mon May 26 07:18:35 2025, MaxMem=   104857600 cpu:               0.0 elap:               0.1
 (Enter /mlatom/software/Gaussian/g16-avx2/l301.exe)
 Standard basis: STO-3G (5D, 7F)
 Ernie: Thresh=  0.10000D-02 Tol=  0.10000D-05 Strict=F.
 There are    40 symmetry adapted cartesian basis functions of A   symmetry.
 There are    40 symmetry adapted basis functions of A   symmetry.
    40 basis functions,   120 primitive gaussians,    40 cartesian basis functions
    23 alpha electrons       23 beta electrons
       nuclear repulsion energy       236.1573655564 Hartrees.
 IExCor=    0 DFT=F Ex=HF Corr=None ExCW=0 ScaHFX=  1.000000
 ScaDFX=  1.000000  1.000000  1.000000  1.000000 ScalE2=  1.000000  1.000000
 IRadAn=      5 IRanWt=     -1 IRanGd=            0 ICorTp=0 IEmpDi=  4
 NAtoms=   16 NActive=   16 NUniq=   16 SFac= 1.00D+00 NAtFMM=   60 NAOKFM=F Big=F
 Integral buffers will be    131072 words long.
 Raffenetti 1 integral format.
 Two-electron integral symmetry is turned on.
 Leave Link  301 at Mon May 26 07:18:35 2025, MaxMem=   104857600 cpu:               0.0 elap:               0.2
 (Enter /mlatom/software/Gaussian/g16-avx2/l402.exe)
 External calculation of energy, first and second derivatives.
 Running external command "/mlatom/software/miniconda3/bin/python /mlatom/software/mlatom_xacs/mlatom/interfaces/gaussian_interface.py model_predict_kwargs R"
         input file       "/mlatom/home/huangyh/projects/delta_learning/paper/revision1/Starting_from_ub3lyp_d4/da/b3lyp/b3lyp/ts/irc/p_calcall/Gau-125146.EIn"
         output file      "/mlatom/home/huangyh/projects/delta_learning/paper/revision1/Starting_from_ub3lyp_d4/da/b3lyp/b3lyp/ts/irc/p_calcall/Gau-125146.EOu"
         message file     "/mlatom/home/huangyh/projects/delta_learning/paper/revision1/Starting_from_ub3lyp_d4/da/b3lyp/b3lyp/ts/irc/p_calcall/Gau-125146.EMs"
         fchk file        "/mlatom/home/huangyh/projects/delta_learning/paper/revision1/Starting_from_ub3lyp_d4/da/b3lyp/b3lyp/ts/irc/p_calcall/Gau-125146.EFC"
         mat. el file     "/mlatom/home/huangyh/projects/delta_learning/paper/revision1/Starting_from_ub3lyp_d4/da/b3lyp/b3lyp/ts/irc/p_calcall/Gau-125146.EUF"
 Recovered energy= -234.648297200     dipole=      0.000000000000     -0.227600000000      0.000000000000
 Energy=    -234.648297     NIter=   0.
 Dipole moment=       0.000000      -0.227600       0.000000
 Leave Link  402 at Mon May 26 07:18:58 2025, MaxMem=   104857600 cpu:               0.1 elap:              22.2
 (Enter /mlatom/software/Gaussian/g16-avx2/l601.exe)
 Leave Link  601 at Mon May 26 07:18:58 2025, MaxMem=   104857600 cpu:               0.0 elap:               0.1
 (Enter /mlatom/software/Gaussian/g16-avx2/l716.exe)
 Dipole        = 0.00000000D+00-2.27600000D-01 0.00000000D+00
 Full mass-weighted force constant matrix:
 Low frequencies ---   -7.9384   -4.8517   -0.1705    0.1568    0.2298   11.8784
 Low frequencies ---  166.7977  277.7756  398.2171
 Diagonal vibrational polarizability:
        1.0234076       0.5065882       2.3975771
 Harmonic frequencies (cm**-1), IR intensities (KM/Mole), Raman scattering
 activities (A**4/AMU), depolarization ratios for plane and unpolarized
 incident light, reduced masses (AMU), force constants (mDyne/A),
 and normal coordinates:
                      1                      2                      3
                      A                      A                      A
 Frequencies --    166.7965               277.7756               398.2171
 Red. masses --      1.7620                 1.8311                 1.9453
 Frc consts  --      0.0289                 0.0832                 0.1818
 IR Inten    --      0.3276                 0.0732                 0.0034
  Atom  AN      X      Y      Z        X      Y      Z        X      Y      Z
     1   6     0.02  -0.01   0.14    -0.01   0.04  -0.05    -0.06   0.02  -0.04
     2   6    -0.02   0.01  -0.09    -0.01   0.03  -0.09     0.01  -0.03   0.19
     3   1    -0.14  -0.05   0.37     0.03  -0.01  -0.12     0.15   0.14  -0.32
     4   1     0.30  -0.04   0.24    -0.10   0.18  -0.06    -0.41  -0.03  -0.18
     5   1    -0.03   0.01  -0.27    -0.01   0.03  -0.16     0.05  -0.02   0.31
     6   6    -0.02  -0.01  -0.09     0.01   0.03   0.09    -0.01  -0.03  -0.19
     7   6     0.02   0.01   0.14     0.01   0.04   0.05     0.06   0.02   0.04
     8   1    -0.03  -0.01  -0.27     0.01   0.03   0.16    -0.05  -0.02  -0.31
     9   1    -0.14   0.05   0.37    -0.03  -0.01   0.12    -0.15   0.14   0.32
    10   1     0.30   0.04   0.24     0.10   0.18   0.06     0.41  -0.03   0.18
    11   6    -0.01   0.04  -0.06    -0.06  -0.06   0.13    -0.02   0.01   0.03
    12   6    -0.01  -0.04  -0.06     0.06  -0.06  -0.13     0.02   0.01  -0.03
    13   1    -0.03   0.22  -0.06    -0.26  -0.33   0.11    -0.06  -0.05   0.03
    14   1    -0.01   0.01  -0.18    -0.04   0.01   0.43     0.01   0.01   0.09
    15   1    -0.03  -0.22  -0.06     0.26  -0.33  -0.11     0.06  -0.05  -0.03
    16   1    -0.01  -0.01  -0.18     0.04   0.01  -0.43    -0.01   0.01  -0.09
                      4                      5                      6
                      A                      A                      A
 Frequencies --    457.1160               501.8071               656.9053
 Red. masses --      2.2995                 4.3785                 1.3329
 Frc consts  --      0.2831                 0.6496                 0.3389
 IR Inten    --      1.1388                 0.0204                19.6502
  Atom  AN      X      Y      Z        X      Y      Z        X      Y      Z
     1   6     0.04  -0.08   0.00     0.26   0.01  -0.04     0.03   0.04  -0.04
     2   6     0.09  -0.08   0.01     0.02   0.19   0.11    -0.07   0.06  -0.04
     3   1    -0.07   0.06   0.19     0.25   0.04  -0.03    -0.15  -0.11   0.18
     4   1     0.22  -0.09   0.07     0.22  -0.10  -0.07     0.29   0.06   0.07
     5   1     0.03  -0.12   0.09    -0.15   0.09   0.22     0.02   0.08   0.52
     6   6     0.09   0.08   0.01    -0.02   0.19  -0.11    -0.07  -0.06  -0.04
     7   6     0.04   0.08   0.00    -0.26   0.01   0.04     0.03  -0.04  -0.04
     8   1     0.03   0.12   0.09     0.15   0.09  -0.22     0.02  -0.08   0.52
     9   1    -0.07  -0.06   0.19    -0.25   0.04   0.03    -0.15   0.11   0.18
    10   1     0.22   0.09   0.07    -0.22  -0.10   0.07     0.29  -0.06   0.07
    11   6    -0.12  -0.14  -0.06     0.05  -0.17  -0.04     0.03   0.02  -0.00
    12   6    -0.12   0.14  -0.06    -0.05  -0.17   0.04     0.03  -0.02  -0.00
    13   1    -0.30  -0.37  -0.07     0.10  -0.31  -0.04    -0.02  -0.14  -0.01
    14   1    -0.03  -0.10   0.26    -0.17  -0.02   0.05    -0.01   0.09   0.15
    15   1    -0.30   0.37  -0.07    -0.10  -0.31   0.04    -0.02   0.14  -0.01
    16   1    -0.03   0.10   0.26     0.17  -0.02  -0.05    -0.01  -0.09   0.15
                      7                      8                      9
                      A                      A                      A
 Frequencies --    733.8259               828.4328               835.4195
 Red. masses --      1.6214                 2.5656                 1.6578
 Frc consts  --      0.5144                 1.0374                 0.6817
 IR Inten    --      7.7118                 0.3056                 0.6666
  Atom  AN      X      Y      Z        X      Y      Z        X      Y      Z
     1   6    -0.03  -0.05  -0.01     0.13  -0.01  -0.07    -0.10   0.03  -0.07
     2   6     0.07  -0.10  -0.07     0.02  -0.13   0.02    -0.01   0.02   0.05
     3   1    -0.03  -0.05  -0.01     0.04  -0.03   0.06    -0.34   0.12   0.28
     4   1    -0.01   0.14   0.03     0.27  -0.13  -0.03     0.27  -0.17   0.05
     5   1     0.03  -0.15   0.45     0.03  -0.13   0.06     0.06   0.06   0.10
     6   6     0.07   0.10  -0.07    -0.02  -0.13  -0.02     0.01   0.02  -0.05
     7   6    -0.03   0.05  -0.01    -0.13  -0.01   0.07     0.10   0.03   0.07
     8   1     0.03   0.15   0.45    -0.03  -0.13  -0.06    -0.06   0.06  -0.10
     9   1    -0.03   0.05  -0.01    -0.04  -0.03  -0.06     0.34   0.12  -0.28
    10   1    -0.01  -0.14   0.03    -0.27  -0.13   0.03    -0.27  -0.17  -0.05
    11   6    -0.04   0.01   0.06     0.08   0.16   0.03    -0.05  -0.02  -0.09
    12   6    -0.04  -0.01   0.06    -0.08   0.16  -0.03     0.05  -0.02   0.09
    13   1     0.17   0.30   0.08    -0.02  -0.23   0.02    -0.03  -0.33  -0.08
    14   1    -0.05  -0.09  -0.30     0.15   0.24   0.42    -0.03   0.03   0.16
    15   1     0.17  -0.30   0.08     0.02  -0.23  -0.02     0.03  -0.33   0.08
    16   1    -0.05   0.09  -0.30    -0.15   0.24  -0.42     0.03   0.03  -0.16
                     10                     11                     12
                      A                      A                      A
 Frequencies --    889.1089               916.8587               943.5874
 Red. masses --      2.4299                 2.4491                 1.3973
 Frc consts  --      1.1317                 1.2130                 0.7330
 IR Inten    --      3.9618                 0.4916                 3.4058
  Atom  AN      X      Y      Z        X      Y      Z        X      Y      Z
     1   6     0.17  -0.01  -0.04    -0.08  -0.14   0.00    -0.01  -0.01  -0.10
     2   6    -0.07  -0.10   0.01    -0.05   0.15   0.02     0.01   0.01   0.06
     3   1     0.19   0.00  -0.07    -0.08  -0.39  -0.05    -0.22   0.03   0.21
     4   1     0.10  -0.02  -0.07    -0.07  -0.27  -0.01     0.32  -0.16   0.01
     5   1    -0.34  -0.25  -0.07    -0.13   0.11  -0.02     0.01   0.03  -0.23
     6   6    -0.07   0.10   0.01     0.05   0.15  -0.02     0.01  -0.01   0.06
     7   6     0.17   0.01  -0.04     0.08  -0.14  -0.00    -0.01   0.01  -0.10
     8   1    -0.34   0.25  -0.07     0.13   0.11   0.02     0.01  -0.03  -0.23
     9   1     0.19  -0.00  -0.07     0.08  -0.39   0.05    -0.22  -0.03   0.21
    10   1     0.10   0.02  -0.07     0.07  -0.27   0.01     0.32   0.16   0.01
    11   6    -0.06   0.12   0.03     0.10   0.05   0.05    -0.03  -0.02   0.05
    12   6    -0.06  -0.12   0.03    -0.10   0.05  -0.05    -0.03   0.02   0.05
    13   1    -0.08   0.02   0.03     0.07  -0.08   0.05     0.39  -0.03   0.09
    14   1    -0.32   0.29   0.09     0.33  -0.06   0.18    -0.15  -0.01  -0.16
    15   1    -0.08  -0.02   0.03    -0.07  -0.08  -0.05     0.39   0.03   0.09
    16   1    -0.32  -0.29   0.09    -0.33  -0.06  -0.18    -0.15   0.01  -0.16
                     13                     14                     15
                      A                      A                      A
 Frequencies --   1001.4668              1023.0330              1055.5419
 Red. masses --      1.1885                 3.0238                 1.6224
 Frc consts  --      0.7023                 1.8646                 1.0650
 IR Inten    --      0.0117                 1.1044                 3.3621
  Atom  AN      X      Y      Z        X      Y      Z        X      Y      Z
     1   6    -0.01  -0.00  -0.01     0.16  -0.03   0.03     0.01   0.12   0.00
     2   6    -0.01   0.00  -0.09    -0.07   0.16  -0.01    -0.05  -0.06   0.01
     3   1    -0.02  -0.07  -0.00     0.28  -0.07  -0.15    -0.02   0.42   0.10
     4   1     0.02   0.08   0.01    -0.08   0.07  -0.05     0.05   0.34   0.05
     5   1     0.03  -0.01   0.69    -0.03   0.18   0.08    -0.25  -0.18  -0.02
     6   6     0.01   0.00   0.09    -0.07  -0.16  -0.01    -0.05   0.06   0.01
     7   6     0.01  -0.00   0.01     0.16   0.03   0.03     0.01  -0.12   0.00
     8   1    -0.03  -0.01  -0.69    -0.03  -0.18   0.08    -0.25   0.18  -0.02
     9   1     0.02  -0.07   0.00     0.28   0.07  -0.15    -0.02  -0.42   0.10
    10   1    -0.02   0.08  -0.01    -0.08  -0.07  -0.05     0.05  -0.34   0.05
    11   6     0.01  -0.00   0.01    -0.10  -0.15   0.02     0.03  -0.07  -0.02
    12   6    -0.01  -0.00  -0.01    -0.10   0.15   0.02     0.03   0.07  -0.02
    13   1     0.01   0.02   0.01     0.11   0.20   0.03     0.10  -0.00  -0.01
    14   1     0.01  -0.01  -0.02    -0.11  -0.25  -0.35     0.17  -0.17  -0.07
    15   1    -0.01   0.02  -0.01     0.11  -0.20   0.03     0.10   0.00  -0.01
    16   1    -0.01  -0.01   0.02    -0.11   0.25  -0.35     0.17   0.17  -0.07
                     16                     17                     18
                      A                      A                      A
 Frequencies --   1079.9375              1107.4014              1171.0388
 Red. masses --      1.9801                 1.8289                 1.0844
 Frc consts  --      1.3606                 1.3214                 0.8761
 IR Inten    --      0.1368                 0.0021                 0.0022
  Atom  AN      X      Y      Z        X      Y      Z        X      Y      Z
     1   6     0.03  -0.10  -0.04     0.00  -0.01   0.12    -0.01   0.03   0.02
     2   6    -0.02   0.04   0.00    -0.01   0.01  -0.08     0.00  -0.01   0.01
     3   1     0.02  -0.20  -0.05     0.21   0.23  -0.13    -0.01  -0.36  -0.06
     4   1     0.02  -0.20  -0.06    -0.32  -0.29  -0.04    -0.02  -0.07  -0.00
     5   1    -0.22  -0.07   0.03     0.01   0.01   0.01     0.38   0.20  -0.03
     6   6     0.02   0.04  -0.00     0.01   0.01   0.08    -0.00  -0.01  -0.01
     7   6    -0.03  -0.10   0.04    -0.00  -0.01  -0.12     0.01   0.03  -0.02
     8   1     0.22  -0.07  -0.03    -0.01   0.01  -0.01    -0.38   0.20   0.03
     9   1    -0.02  -0.20   0.05    -0.21   0.23   0.13     0.01  -0.36   0.06
    10   1    -0.02  -0.20   0.06     0.32  -0.29   0.04     0.02  -0.07   0.00
    11   6    -0.16   0.07  -0.01    -0.00   0.02  -0.12     0.04  -0.01   0.00
    12   6     0.16   0.07   0.01     0.00   0.02   0.12    -0.04  -0.01  -0.00
    13   1    -0.29   0.18  -0.03    -0.07  -0.29  -0.12     0.06  -0.05   0.00
    14   1    -0.39   0.20  -0.06    -0.02   0.12   0.21    -0.35   0.22  -0.01
    15   1     0.30   0.18   0.03     0.07  -0.29   0.12    -0.06  -0.05  -0.00
    16   1     0.39   0.20   0.06     0.02   0.12  -0.21     0.35   0.22   0.01
                     19                     20                     21
                      A                      A                      A
 Frequencies --   1173.0080              1260.3362              1282.2101
 Red. masses --      1.1705                 1.1979                 1.2817
 Frc consts  --      0.9489                 1.1211                 1.2415
 IR Inten    --      3.8411                 0.1063                 0.9558
  Atom  AN      X      Y      Z        X      Y      Z        X      Y      Z
     1   6     0.00  -0.01  -0.06    -0.03   0.03   0.02     0.02  -0.03   0.00
     2   6     0.01   0.00   0.05    -0.04  -0.02   0.02     0.02   0.01   0.03
     3   1    -0.09  -0.32   0.02    -0.04  -0.20  -0.01     0.04  -0.25  -0.06
     4   1     0.14   0.39   0.05    -0.05   0.31   0.06    -0.01   0.42   0.05
     5   1    -0.02   0.00  -0.14    -0.44  -0.24   0.00     0.19   0.11  -0.01
     6   6     0.01  -0.00   0.05     0.04  -0.02  -0.02    -0.02   0.01  -0.03
     7   6     0.00   0.01  -0.06     0.03   0.03  -0.02    -0.02  -0.03  -0.00
     8   1    -0.02  -0.00  -0.14     0.44  -0.24  -0.00    -0.19   0.11   0.01
     9   1    -0.09   0.32   0.02     0.04  -0.20   0.01    -0.04  -0.25   0.06
    10   1     0.14  -0.39   0.05     0.05   0.31  -0.06     0.01   0.42  -0.05
    11   6     0.00  -0.00   0.02     0.05  -0.00  -0.04    -0.02   0.01  -0.10
    12   6     0.00   0.00   0.02    -0.05  -0.00   0.04     0.02   0.01   0.10
    13   1    -0.33   0.23  -0.02     0.07  -0.14  -0.04    -0.31  -0.00  -0.12
    14   1     0.13  -0.08  -0.01    -0.19   0.17   0.05     0.25  -0.10   0.09
    15   1    -0.33  -0.23  -0.02    -0.07  -0.14   0.04     0.31  -0.00   0.12
    16   1     0.13   0.08  -0.01     0.19   0.17  -0.05    -0.25  -0.10  -0.09
                     22                     23                     24
                      A                      A                      A
 Frequencies --   1305.6633              1367.8106              1390.4376
 Red. masses --      1.1710                 1.3090                 1.7523
 Frc consts  --      1.1762                 1.4429                 1.9961
 IR Inten    --      1.7224                 1.0962                 3.1758
  Atom  AN      X      Y      Z        X      Y      Z        X      Y      Z
     1   6     0.01  -0.03  -0.04     0.01   0.08   0.01     0.00  -0.13   0.00
     2   6    -0.01   0.03  -0.02     0.03   0.01  -0.00     0.00   0.06   0.01
     3   1    -0.01   0.37   0.06     0.00  -0.36  -0.06     0.05   0.25   0.01
     4   1     0.07  -0.31  -0.06     0.00  -0.21  -0.03    -0.00   0.42   0.07
     5   1    -0.03   0.01   0.04    -0.24  -0.15   0.01    -0.05   0.03  -0.01
     6   6    -0.01  -0.03  -0.02     0.03  -0.01  -0.00     0.00  -0.06   0.01
     7   6     0.01   0.03  -0.04     0.01  -0.08   0.01     0.00   0.13   0.00
     8   1    -0.03  -0.01   0.04    -0.24   0.15   0.01    -0.05  -0.03  -0.01
     9   1    -0.01  -0.37   0.06     0.00   0.36  -0.06     0.05  -0.25   0.01
    10   1     0.07   0.31  -0.06     0.00   0.21  -0.03    -0.00  -0.42   0.07
    11   6    -0.01   0.03   0.05    -0.07   0.04  -0.01    -0.05   0.10  -0.02
    12   6    -0.01  -0.03   0.05    -0.07  -0.04  -0.01    -0.05  -0.10  -0.02
    13   1    -0.28   0.26   0.03     0.17  -0.09   0.02     0.26  -0.25   0.01
    14   1     0.28  -0.14   0.05     0.38  -0.21   0.04     0.27  -0.06   0.08
    15   1    -0.28  -0.26   0.03     0.17   0.09   0.02     0.26   0.25   0.01
    16   1     0.28   0.14   0.05     0.38   0.21   0.04     0.27   0.06   0.08
                     25                     26                     27
                      A                      A                      A
 Frequencies --   1392.3711              1404.3084              1437.8201
 Red. masses --      1.3820                 1.5439                 1.5116
 Frc consts  --      1.5786                 1.7939                 1.8412
 IR Inten    --      0.0862                 1.4334                 0.5843
  Atom  AN      X      Y      Z        X      Y      Z        X      Y      Z
     1   6     0.00  -0.09   0.01    -0.03  -0.10  -0.02     0.04   0.03  -0.00
     2   6     0.02   0.02   0.00     0.01   0.02  -0.00    -0.08  -0.11   0.01
     3   1     0.03   0.13   0.02    -0.01   0.43   0.05     0.06  -0.04  -0.03
     4   1    -0.04   0.32   0.05     0.05   0.21   0.05     0.04   0.00  -0.01
     5   1     0.12   0.08  -0.02     0.09   0.07  -0.01     0.57   0.26  -0.04
     6   6    -0.02   0.02  -0.00    -0.01   0.02   0.00    -0.08   0.11   0.01
     7   6    -0.00  -0.09  -0.01     0.03  -0.10   0.02     0.04  -0.03  -0.00
     8   1    -0.12   0.08   0.02    -0.09   0.07   0.01     0.57  -0.26  -0.04
     9   1    -0.03   0.13  -0.02     0.01   0.43  -0.05     0.06   0.04  -0.03
    10   1     0.04   0.32  -0.05    -0.05   0.21  -0.05     0.04  -0.00  -0.01
    11   6    -0.07   0.05   0.01     0.11  -0.01   0.01    -0.04   0.02  -0.01
    12   6     0.07   0.05  -0.01    -0.11  -0.01  -0.01    -0.04  -0.02  -0.01
    13   1     0.52  -0.24   0.07    -0.29   0.15  -0.02     0.11   0.01   0.01
    14   1    -0.08   0.05  -0.00    -0.26   0.22   0.05     0.22  -0.11   0.07
    15   1    -0.52  -0.24  -0.07     0.29   0.15   0.02     0.11  -0.01   0.01
    16   1     0.08   0.05   0.00     0.26   0.22  -0.05     0.22   0.11   0.07
                     28                     29                     30
                      A                      A                      A
 Frequencies --   1504.0507              1511.2586              1519.8674
 Red. masses --      1.0919                 1.0821                 1.0917
 Frc consts  --      1.4554                 1.4561                 1.4858
 IR Inten    --      0.0007                 3.6357                 3.0867
  Atom  AN      X      Y      Z        X      Y      Z        X      Y      Z
     1   6     0.05  -0.00  -0.02    -0.06   0.00   0.02    -0.01  -0.01   0.00
     2   6    -0.02  -0.00  -0.00    -0.00   0.00   0.00     0.01   0.01   0.00
     3   1    -0.24  -0.03   0.36     0.28   0.05  -0.41     0.01   0.00  -0.02
     4   1    -0.40   0.03  -0.16     0.46  -0.04   0.19     0.02   0.02   0.01
     5   1     0.02   0.02  -0.00    -0.02  -0.00  -0.00    -0.04  -0.02   0.00
     6   6     0.02  -0.00   0.00    -0.00  -0.00   0.00     0.01  -0.01   0.00
     7   6    -0.05  -0.00   0.02    -0.06  -0.00   0.02    -0.01   0.01   0.00
     8   1    -0.02   0.02   0.00    -0.02   0.00  -0.00    -0.04   0.02   0.00
     9   1     0.24  -0.03  -0.36     0.28  -0.05  -0.41     0.01  -0.00  -0.02
    10   1     0.40   0.03   0.16     0.46   0.04   0.19     0.02  -0.02   0.01
    11   6    -0.00  -0.02  -0.02     0.00  -0.00   0.00    -0.02  -0.04  -0.04
    12   6     0.00  -0.02   0.02     0.00   0.00   0.00    -0.02   0.04  -0.04
    13   1     0.10   0.23   0.00    -0.02  -0.02   0.00     0.26   0.42   0.00
    14   1     0.01   0.05   0.24    -0.02  -0.00  -0.03    -0.01   0.13   0.48
    15   1    -0.10   0.23  -0.00    -0.02   0.02   0.00     0.26  -0.42   0.00
    16   1    -0.01   0.05  -0.24    -0.02   0.00  -0.03    -0.01  -0.13   0.48
                     31                     32                     33
                      A                      A                      A
 Frequencies --   1530.8596              1737.3574              3003.2066
 Red. masses --      1.1011                 6.1435                 1.0699
 Frc consts  --      1.5204                10.9256                 5.6852
 IR Inten    --      0.8325                 2.6460                68.2713
  Atom  AN      X      Y      Z        X      Y      Z        X      Y      Z
     1   6    -0.03   0.00   0.01    -0.05  -0.01   0.00     0.03   0.00  -0.04
     2   6     0.00   0.00   0.00     0.47   0.06  -0.04    -0.00   0.00  -0.00
     3   1     0.13   0.00  -0.21    -0.13  -0.20   0.08    -0.14   0.02  -0.12
     4   1     0.22  -0.02   0.09    -0.13  -0.11  -0.05    -0.23  -0.09   0.64
     5   1    -0.02  -0.01   0.00    -0.17  -0.37   0.02     0.01  -0.01  -0.00
     6   6    -0.00   0.00  -0.00    -0.47   0.06   0.04    -0.00  -0.00  -0.00
     7   6     0.03   0.00  -0.01     0.05  -0.01  -0.00     0.03  -0.00  -0.04
     8   1     0.02  -0.01  -0.00     0.17  -0.37  -0.02     0.01   0.01  -0.00
     9   1    -0.13   0.00   0.21     0.13  -0.20  -0.08    -0.14  -0.02  -0.12
    10   1    -0.22  -0.02  -0.09     0.13  -0.11   0.05    -0.22   0.09   0.62
    11   6    -0.02  -0.04  -0.03     0.02   0.00  -0.00    -0.00  -0.00   0.01
    12   6     0.02  -0.04   0.03    -0.02   0.00   0.00    -0.00   0.00   0.01
    13   1     0.22   0.38   0.00    -0.01   0.02  -0.01     0.01   0.00  -0.09
    14   1     0.02   0.08   0.42    -0.05   0.05   0.03     0.02   0.03  -0.01
    15   1    -0.22   0.38  -0.00     0.01   0.02   0.01     0.01  -0.00  -0.09
    16   1    -0.02   0.08  -0.42     0.05   0.05  -0.03     0.02  -0.03  -0.01
                     34                     35                     36
                      A                      A                      A
 Frequencies --   3003.2620              3029.1389              3032.5989
 Red. masses --      1.0698                 1.0700                 1.0669
 Frc consts  --      5.6853                 5.7846                 5.7811
 IR Inten    --      0.0190                16.6792                 9.6994
  Atom  AN      X      Y      Z        X      Y      Z        X      Y      Z
     1   6    -0.03  -0.00   0.04    -0.02   0.00  -0.02     0.02  -0.00   0.02
     2   6    -0.00  -0.00   0.00    -0.00  -0.00  -0.00    -0.00   0.00   0.00
     3   1     0.14  -0.02   0.12     0.22  -0.03   0.16    -0.28   0.04  -0.21
     4   1     0.22   0.09  -0.62    -0.02  -0.00   0.04     0.02   0.01  -0.04
     5   1    -0.01   0.02   0.00    -0.00   0.01   0.00     0.01  -0.01  -0.00
     6   6     0.00  -0.00  -0.00     0.00  -0.00   0.00    -0.00  -0.00   0.00
     7   6     0.03  -0.00  -0.04     0.02   0.00   0.02     0.02   0.00   0.02
     8   1     0.01   0.02  -0.00     0.00   0.01  -0.00     0.01   0.01  -0.00
     9   1    -0.14  -0.02  -0.12    -0.22  -0.03  -0.16    -0.28  -0.04  -0.21
    10   1    -0.23   0.09   0.64     0.02  -0.00  -0.04     0.02  -0.01  -0.04
    11   6     0.00   0.00  -0.01     0.00   0.01   0.05    -0.01  -0.03  -0.03
    12   6    -0.00   0.00   0.01    -0.00   0.01  -0.05    -0.01   0.03  -0.03
    13   1    -0.00   0.00   0.05     0.06   0.01  -0.61    -0.05  -0.01   0.48
    14   1    -0.03  -0.05   0.01    -0.11  -0.17   0.06     0.18   0.31  -0.10
    15   1     0.00   0.00  -0.05    -0.06   0.01   0.61    -0.05   0.01   0.48
    16   1     0.03  -0.05  -0.01     0.11  -0.17  -0.06     0.18  -0.31  -0.10
                     37                     38                     39
                      A                      A                      A
 Frequencies --   3048.4082              3048.6059              3076.9537
 Red. masses --      1.0888                 1.0839                 1.0967
 Frc consts  --      5.9612                 5.9352                 6.1174
 IR Inten    --      1.7219               105.0862                56.4433
  Atom  AN      X      Y      Z        X      Y      Z        X      Y      Z
     1   6    -0.04   0.01  -0.04    -0.03   0.01  -0.04    -0.00  -0.00   0.01
     2   6     0.00  -0.00  -0.00     0.00  -0.00  -0.00     0.00  -0.00  -0.00
     3   1     0.50  -0.07   0.36     0.46  -0.06   0.34    -0.01  -0.00  -0.00
     4   1    -0.07  -0.02   0.15    -0.07  -0.02   0.15     0.03   0.01  -0.07
     5   1    -0.02   0.03   0.00    -0.02   0.02   0.00    -0.00   0.01  -0.00
     6   6    -0.00  -0.00   0.00     0.00   0.00  -0.00    -0.00  -0.00   0.00
     7   6     0.04   0.01   0.04    -0.03  -0.01  -0.04     0.00  -0.00  -0.01
     8   1     0.02   0.03  -0.00    -0.02  -0.02   0.00     0.00   0.01   0.00
     9   1    -0.50  -0.07  -0.36     0.46   0.06   0.34     0.01  -0.00   0.00
    10   1     0.07  -0.02  -0.15    -0.07   0.02   0.15    -0.03   0.01   0.07
    11   6    -0.00  -0.01  -0.02    -0.01  -0.02  -0.01    -0.03  -0.05   0.03
    12   6     0.00  -0.01   0.02    -0.01   0.02  -0.01     0.03  -0.05  -0.03
    13   1    -0.03  -0.00   0.26    -0.02  -0.00   0.22     0.02  -0.01  -0.22
    14   1     0.06   0.10  -0.03     0.15   0.25  -0.08     0.33   0.55  -0.16
    15   1     0.03  -0.00  -0.26    -0.02   0.00   0.22    -0.02  -0.01   0.22
    16   1    -0.06   0.10   0.03     0.15  -0.25  -0.08    -0.33   0.55   0.16
                     40                     41                     42
                      A                      A                      A
 Frequencies --   3081.4971              3145.0996              3168.5130
 Red. masses --      1.1055                 1.0840                 1.0965
 Frc consts  --      6.1850                 6.3176                 6.4860
 IR Inten    --     64.7898                11.1852                50.5919
  Atom  AN      X      Y      Z        X      Y      Z        X      Y      Z
     1   6    -0.00   0.00  -0.01     0.00  -0.00   0.00     0.00   0.00   0.00
     2   6     0.00  -0.00  -0.00     0.03  -0.05  -0.00     0.04  -0.05  -0.00
     3   1     0.05  -0.01   0.04    -0.03   0.00  -0.02    -0.03   0.00  -0.02
     4   1    -0.04  -0.01   0.10    -0.00  -0.00   0.01    -0.01  -0.00   0.01
     5   1    -0.00   0.01   0.00    -0.34   0.61   0.03    -0.35   0.61   0.04
     6   6     0.00   0.00  -0.00     0.03   0.05  -0.00    -0.04  -0.05   0.00
     7   6    -0.00  -0.00  -0.01     0.00   0.00   0.00    -0.00   0.00  -0.00
     8   1    -0.00  -0.01   0.00    -0.34  -0.61   0.03     0.35   0.61  -0.04
     9   1     0.05   0.01   0.04    -0.03  -0.00  -0.02     0.03   0.00   0.02
    10   1    -0.04   0.01   0.10    -0.00   0.00   0.01     0.01  -0.00  -0.01
    11   6     0.03   0.04  -0.05    -0.00   0.00   0.00     0.00   0.00   0.00
    12   6     0.03  -0.04  -0.05    -0.00  -0.00   0.00    -0.00   0.00  -0.00
    13   1    -0.04   0.00   0.45     0.00  -0.00  -0.01     0.00  -0.00  -0.01
    14   1    -0.26  -0.43   0.13     0.00   0.00  -0.00    -0.00  -0.01   0.00
    15   1    -0.04  -0.00   0.45     0.00   0.00  -0.01    -0.00  -0.00   0.01
    16   1    -0.26   0.43   0.13     0.00  -0.00  -0.00     0.00  -0.01  -0.00

 -------------------
 - Thermochemistry -
 -------------------
 Temperature   298.150 Kelvin.  Pressure   1.00000 Atm.
 Atom     1 has atomic number  6 and mass  12.00000
 Atom     2 has atomic number  6 and mass  12.00000
 Atom     3 has atomic number  1 and mass   1.00783
 Atom     4 has atomic number  1 and mass   1.00783
 Atom     5 has atomic number  1 and mass   1.00783
 Atom     6 has atomic number  6 and mass  12.00000
 Atom     7 has atomic number  6 and mass  12.00000
 Atom     8 has atomic number  1 and mass   1.00783
 Atom     9 has atomic number  1 and mass   1.00783
 Atom    10 has atomic number  1 and mass   1.00783
 Atom    11 has atomic number  6 and mass  12.00000
 Atom    12 has atomic number  6 and mass  12.00000
 Atom    13 has atomic number  1 and mass   1.00783
 Atom    14 has atomic number  1 and mass   1.00783
 Atom    15 has atomic number  1 and mass   1.00783
 Atom    16 has atomic number  1 and mass   1.00783
 Molecular mass:    82.07825 amu.
 Principal axes and moments of inertia in atomic units:
                           1         2         3
     Eigenvalues --   382.81708 398.76414 710.08570
           X            1.00000  -0.00000  -0.00243
           Y            0.00000   1.00000  -0.00000
           Z            0.00243   0.00000   1.00000
 This molecule is an asymmetric top.
 Rotational symmetry number  1.
 Rotational temperatures (Kelvin)      0.22625     0.21721     0.12198
 Rotational constants (GHZ):           4.71437     4.52584     2.54158
 Zero-point vibrational energy     385789.2 (Joules/Mol)
                                   92.20583 (Kcal/Mol)
 Warning -- explicit consideration of   5 degrees of freedom as
           vibrations may cause significant error
 Vibrational temperatures:    239.98   399.66   572.95   657.69   721.99
          (Kelvin)            945.14  1055.81  1191.93  1201.98  1279.23
                             1319.16  1357.61  1440.89  1471.92  1518.69
                             1553.79  1593.30  1684.86  1687.70  1813.34
                             1844.81  1878.56  1967.97  2000.53  2003.31
                             2020.49  2068.70  2163.99  2174.36  2186.75
                             2202.57  2499.67  4320.94  4321.02  4358.26
                             4363.23  4385.98  4386.26  4427.05  4433.59
                             4525.10  4558.78
 
 Zero-point correction=                           0.146939 (Hartree/Particle)
 Thermal correction to Energy=                    0.152433
 Thermal correction to Enthalpy=                  0.153377
 Thermal correction to Gibbs Free Energy=         0.118302
 Sum of electronic and zero-point Energies=           -234.501358
 Sum of electronic and thermal Energies=              -234.495865
 Sum of electronic and thermal Enthalpies=            -234.494920
 Sum of electronic and thermal Free Energies=         -234.529996
 
                     E (Thermal)             CV                S
                      KCal/Mol        Cal/Mol-Kelvin    Cal/Mol-Kelvin
 Total                   95.653             21.327             73.822
 Electronic               0.000              0.000              0.000
 Translational            0.889              2.981             39.129
 Rotational               0.889              2.981             26.186
 Vibrational             93.875             15.366              8.507
 Vibration     1          0.624              1.883              2.471
 Vibration     2          0.679              1.715              1.547
 Vibration     3          0.764              1.474              0.969
 Vibration     4          0.815              1.345              0.775
 Vibration     5          0.857              1.246              0.654
                       Q            Log10(Q)             Ln(Q)
 Total Bot       0.384663D-54        -54.414920       -125.294984
 Total V=0       0.148738D+14         13.172423         30.330625
 Vib (Bot)       0.111668D-66        -66.952071       -154.162840
 Vib (Bot)    1  0.120946D+01          0.082593          0.190178
 Vib (Bot)    2  0.692957D+00         -0.159294         -0.366788
 Vib (Bot)    3  0.448169D+00         -0.348559         -0.802586
 Vib (Bot)    4  0.372975D+00         -0.428320         -0.986244
 Vib (Bot)    5  0.326996D+00         -0.485457         -1.117807
 Vib (V=0)       0.431790D+01          0.635272          1.462769
 Vib (V=0)    1  0.180874D+01          0.257377          0.592631
 Vib (V=0)    2  0.135451D+01          0.131782          0.303440
 Vib (V=0)    3  0.117146D+01          0.068727          0.158249
 Vib (V=0)    4  0.112379D+01          0.050684          0.116704
 Vib (V=0)    5  0.109743D+01          0.040378          0.092974
 Electronic      0.100000D+01          0.000000          0.000000
 Translational   0.292278D+08          7.465796         17.190631
 Rotational      0.117857D+06          5.071355         11.677226
 
                                                 d7cb446f-8f9e-4f56-ae12-2ef0924d
 0e2b
                                                             IR Spectrum
 
   3333333333                                                  1     1111 11111 111  11 11111                                        
   1100000000                                                  7     5555 44333 322  11 10000  99888   7  6     5 4  3   2    1      
   6487443200                                                  3     3210 30996 086  77 08520  41832   3  5     0 5  9   7    6      
   9517983933                                                  7     1014 84208 620  31 70631  47958   4  7     2 7  8   8    7      
 
   XXXXXXXX X                                                  X     XXX  XXXXX XXX  X   XXX   XXXXX   X  X       X      X    X      
   XXXXX XX X                                                                                             X                          
   X XXX  X X                                                                                             X                          
   X XXX    X                                                                                             X                          
   X XXX    X                                                                                                                        
   X XXX    X                                                                                                                        
   X XXX    X                                                                                                                        
   X XXX    X                                                                                                                        
   X XXX    X                                                                                                                        
   X XXX    X                                                                                                                        
     XXX    X                                                                                                                        
     X X    X                                                                                                                        
       X    X                                                                                                                        
       X                                                                                                                             
       X                                                                                                                             
       X                                                                                                                             
       X                                                                                                                             
       X                                                                                                                             
       X                                                                                                                             
       X                                                                                                                             
 
 ***** Axes restored to original set *****
 -------------------------------------------------------------------
 Center     Atomic                   Forces (Hartrees/Bohr)
 Number     Number              X              Y              Z
 -------------------------------------------------------------------
      1        6           0.000003965    0.000003222    0.000004207
      2        6          -0.000000493    0.000002530   -0.000002926
      3        1          -0.000001023    0.000000549    0.000002401
      4        1           0.000000023   -0.000000270    0.000002286
      5        1          -0.000000448   -0.000000055    0.000001105
      6        6           0.000000635    0.000001593    0.000002539
      7        6          -0.000003177    0.000003157   -0.000003513
      8        1           0.000000294   -0.000000060   -0.000001101
      9        1           0.000000799    0.000000572   -0.000002211
     10        1          -0.000000301   -0.000000097   -0.000002224
     11        6           0.000000138   -0.000005065   -0.000002767
     12        6          -0.000000223   -0.000005091    0.000002404
     13        1          -0.000001271   -0.000000367   -0.000000348
     14        1          -0.000000436   -0.000000079   -0.000000290
     15        1           0.000001291   -0.000000546    0.000000317
     16        1           0.000000226    0.000000008    0.000000121
 -------------------------------------------------------------------
 Cartesian Forces:  Max     0.000005091 RMS     0.000002022
 Z-matrix is all fixed cartesians, so copy forces.
 Leave Link  716 at Mon May 26 07:18:58 2025, MaxMem=   104857600 cpu:               0.0 elap:               0.1
 (Enter /mlatom/software/Gaussian/g16-avx2/l103.exe)

 GradGradGradGradGradGradGradGradGradGradGradGradGradGradGradGradGradGrad
 Berny optimization.
 Search for a local minimum.
 Step number   1 out of a maximum of    2
 All quantities printed in internal units (Hartrees-Bohrs-Radians)
 Second derivative matrix not updated -- analytic derivatives used.
 ITU=  0
     Eigenvalues ---    0.00184   0.00501   0.01213   0.01474   0.02786
     Eigenvalues ---    0.02978   0.04349   0.04556   0.04882   0.05126
     Eigenvalues ---    0.05196   0.05306   0.05682   0.06710   0.07415
     Eigenvalues ---    0.07736   0.08556   0.09038   0.10226   0.13069
     Eigenvalues ---    0.13635   0.15905   0.15980   0.19340   0.19911
     Eigenvalues ---    0.21724   0.22208   0.33628   0.35480   0.51320
     Eigenvalues ---    0.53836   0.63560   0.68768   0.74682   0.76555
     Eigenvalues ---    0.77899   0.80240   0.80360   0.84441   0.90122
     Eigenvalues ---    0.92580   1.44121
 Angle between quadratic step and forces=  72.51 degrees.
 Linear search not attempted -- first point.
 B after Tr=    -0.000000    0.000003   -0.000001
         Rot=    1.000000    0.000000   -0.000000    0.000000 Ang=   0.00 deg.
 Variable       Old X    -DE/DX   Delta X   Delta X   Delta X     New X
                                 (Linear)    (Quad)   (Total)
    X1        2.83229   0.00000   0.00000   0.00002   0.00002   2.83231
    Y1        0.09027   0.00000   0.00000   0.00004   0.00004   0.09031
    Z1       -0.20947   0.00000   0.00000   0.00005   0.00004  -0.20943
    X2        1.25877  -0.00000   0.00000  -0.00000  -0.00000   1.25876
    Y2        2.46826   0.00000   0.00000   0.00003   0.00003   2.46829
    Z2       -0.10726  -0.00000   0.00000  -0.00002  -0.00002  -0.10728
    X3        4.51081  -0.00000   0.00000  -0.00007  -0.00007   4.51074
    Y3        0.30905   0.00000   0.00000   0.00005   0.00005   0.30911
    Z3        0.99386   0.00000   0.00000   0.00017   0.00017   0.99403
    X4        3.56793   0.00000   0.00000   0.00015   0.00015   3.56808
    Y4       -0.17057  -0.00000   0.00000   0.00009   0.00009  -0.17048
    Z4       -2.14016   0.00000   0.00000   0.00010   0.00009  -2.14007
    X5        2.26700  -0.00000   0.00000  -0.00001  -0.00001   2.26700
    Y5        4.26073  -0.00000   0.00000   0.00003   0.00003   4.26076
    Z5       -0.21177   0.00000   0.00000  -0.00002  -0.00002  -0.21179
    X6       -1.25879   0.00000   0.00000   0.00000   0.00000  -1.25879
    Y6        2.46825   0.00000   0.00000   0.00002   0.00003   2.46827
    Z6        0.10727   0.00000   0.00000  -0.00000  -0.00000   0.10727
    X7       -2.83230  -0.00000   0.00000  -0.00001  -0.00001  -2.83231
    Y7        0.09024   0.00000   0.00000   0.00003   0.00004   0.09028
    Z7        0.20944  -0.00000   0.00000  -0.00002  -0.00002   0.20943
    X8       -2.26704   0.00000   0.00000   0.00000   0.00000  -2.26704
    Y8        4.26071  -0.00000   0.00000   0.00003   0.00003   4.26074
    Z8        0.21181  -0.00000   0.00000  -0.00004  -0.00004   0.21177
    X9       -4.51078   0.00000   0.00000   0.00004   0.00004  -4.51074
    Y9        0.30901   0.00000   0.00000   0.00004   0.00004   0.30906
    Z9       -0.99394  -0.00000   0.00000  -0.00010  -0.00009  -0.99404
   X10       -3.56798  -0.00000   0.00000  -0.00010  -0.00009  -3.56808
   Y10       -0.17059  -0.00000   0.00000   0.00008   0.00009  -0.17051
   Z10        2.14011  -0.00000   0.00000  -0.00005  -0.00005   2.14007
   X11        1.31905   0.00000   0.00000   0.00003   0.00003   1.31909
   Y11       -2.25302  -0.00001   0.00000  -0.00005  -0.00004  -2.25306
   Z11        0.60268  -0.00000   0.00000  -0.00009  -0.00009   0.60259
   X12       -1.31902  -0.00000   0.00000  -0.00004  -0.00004  -1.31907
   Y12       -2.25304  -0.00001   0.00000  -0.00004  -0.00004  -2.25308
   Z12       -0.60266   0.00000   0.00000   0.00007   0.00008  -0.60258
   X13        1.11941  -0.00000   0.00000   0.00014   0.00014   1.11955
   Y13       -2.25212  -0.00000   0.00000  -0.00022  -0.00022  -2.25234
   Z13        2.66991  -0.00000   0.00000  -0.00008  -0.00008   2.66983
   X14        2.35157  -0.00000   0.00000   0.00002   0.00002   2.35159
   Y14       -3.97988  -0.00000   0.00000   0.00000   0.00001  -3.97987
   Z14        0.10382  -0.00000   0.00000  -0.00029  -0.00029   0.10353
   X15       -1.11938   0.00000   0.00000  -0.00015  -0.00015  -1.11953
   Y15       -2.25217  -0.00000   0.00000  -0.00019  -0.00018  -2.25236
   Z15       -2.66989   0.00000   0.00000   0.00007   0.00007  -2.66982
   X16       -2.35152   0.00000   0.00000  -0.00003  -0.00003  -2.35155
   Y16       -3.97991   0.00000   0.00000   0.00000   0.00001  -3.97990
   Z16       -0.10377   0.00000   0.00000   0.00025   0.00025  -0.10351
         Item               Value     Threshold  Converged?
 Maximum Force            0.000005     0.000450     YES
 RMS     Force            0.000002     0.000300     YES
 Maximum Displacement     0.000289     0.001800     YES
 RMS     Displacement     0.000094     0.001200     YES
 Predicted change in Energy=-1.318839D-09
 Optimization completed.
    -- Stationary point found.
 GradGradGradGradGradGradGradGradGradGradGradGradGradGradGradGradGradGrad

 Leave Link  103 at Mon May 26 07:18:58 2025, MaxMem=   104857600 cpu:               0.0 elap:               0.1
 (Enter /mlatom/software/Gaussian/g16-avx2/l9999.exe)
 1\1\GINC-B002\Freq\RExternal='/mlatom/software/miniconda3/bin/python /
 mlatom/software/mlatom_xacs/ml\ZDO\C6H10\UNKNOWN\26-May-2025\0\\#p Fre
 q external='/mlatom/software/miniconda3/bin/python /mlatom/software/ml
 atom_xacs/mlatom/interfaces/gaussian_interface.py model_predict_kwargs
 '\\d7cb446f-8f9e-4f56-ae12-2ef0924d0e2b\\0,1\C,1.4987832937,0.04776779
 2,-0.110848552\C,0.6661107913,1.306144846,-0.0567598888\H,2.3870182524
 ,0.1635446012,0.525930421\H,1.8880665449,-0.0902610368,-1.1325236945\H
 ,1.1996472568,2.254680918,-0.1120633768\C,-0.6661233212,1.306139297,0.
 0567663157\C,-1.4987869708,0.0477543101,0.110833179\H,-1.1996666815,2.
 2546704885,0.1120852819\H,-2.3870042467,0.1635227664,-0.5259718363\H,-
 1.8880963351,-0.0902746485,1.1324980883\C,0.6980128635,-1.1922454246,0
 .3189232265\C,-0.6979979554,-1.1922574314,-0.3189127671\H,0.5923661622
 ,-1.1917685658,1.4128545421\H,1.244396929,-2.1060613109,0.0549370277\H
 ,-0.5923482458,-1.1917984421,-1.4128437766\H,-1.244371843,-2.106075105
 6,-0.0549117558\\Version=ES64L-G16RevA.03\HF=-234.6482972\RMSD=0.000e+
 00\RMSF=2.022e-06\ZeroPoint=0.1469393\Thermal=0.1524325\Dipole=0.,-0.2
 276,0.\DipoleDeriv=0.0869712,0.0045384,0.0156387,-0.0143233,0.0400639,
 0.0114308,0.0402422,-0.0073779,0.2212143,0.0748235,-0.026408,-0.020109
 9,-0.0923494,0.1283507,0.0097579,-0.0462353,0.0153094,-0.1927734,-0.13
 98621,-0.0235935,-0.0848716,-0.0029577,-0.0059107,-0.0160747,-0.126434
 ,-0.0022344,-0.0086794,-0.0128773,0.0109537,0.062393,0.0808059,-0.0167
 471,-0.0239249,0.1098781,-0.0107639,-0.1385237,-0.0248179,-0.0684679,0
 .0090232,-0.0689516,-0.1487315,0.0144552,0.0070977,0.0099908,0.1132607
 ,0.0748235,0.0264099,-0.0201092,0.0923494,0.1283493,-0.0097508,-0.0462
 279,-0.0153031,-0.1927752,0.0869651,-0.0045407,0.0156373,0.0143248,0.0
 400655,-0.0114323,0.0402347,0.0073761,0.221215,-0.0248184,0.0684679,0.
 0090245,0.0689527,-0.1487293,-0.0144582,0.0070989,-0.009995,0.1132601,
 -0.1398557,0.0235916,-0.0848734,0.0029535,-0.0059101,0.0160742,-0.1264
 362,0.0022341,-0.0086843,-0.0128806,-0.0109527,0.0623972,-0.0808047,-0
 .0167479,0.023924,0.109882,0.0107634,-0.1385192,0.0611179,-0.0090536,-
 0.0219451,-0.0212297,0.1341873,0.0255987,-0.0042733,-0.013231,0.145281
 3,0.0611185,0.0090528,-0.0219456,0.0212281,0.1341867,-0.0255988,-0.004
 2741,0.0132319,0.1452818,0.005,-0.030377,0.028797,-0.0217556,0.0236891
 ,-0.0108694,-0.0011789,0.0305148,-0.1784297,-0.0503543,0.0980643,0.011
 0726,0.0989123,-0.1549023,-0.0201696,0.0209017,-0.0408918,0.0386512,0.
 0049994,0.0303777,0.0287972,0.0217555,0.0236889,0.0108663,-0.0011781,-
 0.0305183,-0.1784298,-0.0503527,-0.0980628,0.0110742,-0.0989103,-0.154
 9027,0.0201716,0.0209026,0.0408947,0.0386504\PG=C01 [X(C6H10)]\NImag=0
 \\0.54879948,0.00372894,0.46144157,0.01866709,0.01562011,0.54956954,-0
 .12495157,0.05244127,0.00171913,0.84114974,0.05168763,-0.17567197,-0.0
 0022602,0.05209359,0.59037037,0.00277860,-0.00485564,-0.07363994,-0.06
 146316,-0.00861444,0.14900937,-0.20882935,-0.02287938,-0.12000467,-0.0
 1816345,0.00007164,-0.00950655,0.22962140,-0.02197357,-0.05144677,-0.0
 1509503,0.02630863,0.00284446,0.01773358,0.02339815,0.05763456,-0.1203
 4480,-0.01581378,-0.13597040,0.00317337,-0.00016895,0.00237978,0.13049
 753,0.01650061,0.14647797,-0.07534431,0.00757659,0.07856237,-0.0115070
 5,0.00602269,0.01817765,0.00954006,-0.00388102,-0.02539447,0.08231759,
 0.01019494,-0.05157682,-0.03322058,0.01289926,-0.00360252,-0.02608676,
 0.00096281,-0.00042173,-0.00373083,-0.01266247,0.05872733,0.07639783,-
 0.02803649,-0.25998213,0.00199087,-0.00218546,0.00252965,0.00587732,-0
 .00286240,-0.02046503,-0.08666852,0.03167541,0.28438484,0.01068530,0.0
 1604188,-0.00194128,-0.12064512,-0.11319433,0.00840903,0.00101849,-0.0
 0078689,-0.00026284,0.00014895,-0.00057932,0.00047953,0.12916238,-0.01
 422738,-0.01833158,0.00269573,-0.11731385,-0.26531786,0.01174802,0.000
 21638,0.00107566,0.00052742,0.00027601,-0.00007941,-0.00062887,0.12462
 304,0.28050518,-0.00212294,-0.00060697,0.00197439,0.00917931,0.0106102
 7,-0.03797407,0.00061264,-0.00014823,0.00049492,-0.00021096,0.00095780
 ,-0.00013646,-0.00944921,-0.01334739,0.02563648,-0.02046010,0.01135736
 ,0.00266608,-0.54548534,-0.00328472,0.04225456,0.00118204,0.00038815,0
 .00067593,0.00121941,-0.00042708,-0.00139626,-0.01467186,0.00197888,0.
 00107798,0.84115036,0.03014311,0.00445684,-0.00377778,0.00328105,-0.11
 682345,-0.00000556,0.00308696,-0.00447890,0.00041460,0.00264855,-0.002
 81275,-0.00049440,-0.03155144,0.00237242,0.00288613,-0.05209180,0.5903
 6817,0.00442253,-0.00125342,0.00506255,0.04225456,0.00000487,-0.053280
 55,-0.00066616,0.00015289,-0.00022282,-0.00003214,0.00024899,0.0002898
 7,0.00158892,-0.00014297,0.00371046,-0.06146386,0.00862115,0.14900952,
 0.00236025,-0.00055645,0.00095604,-0.02045989,-0.03014343,0.00442185,0
 .00065593,0.00021390,-0.00027771,-0.00029849,-0.00016189,-0.00030344,-
 0.00351832,0.00069854,0.00164377,-0.12495031,-0.05168633,0.00277775,0.
 54879659,0.00055650,-0.00126308,0.00021358,-0.01135753,0.00445654,0.00
 125346,-0.00028984,-0.00047564,0.00001751,0.00003272,-0.00047141,0.000
 09002,0.00277505,0.00136703,-0.00099408,-0.05244041,-0.17567198,0.0048
 5355,-0.00372780,0.46143980,0.00095607,-0.00021347,-0.00747586,0.00266
 582,0.00377781,0.00506294,-0.00062760,0.00035276,0.00027673,0.00101282
 ,-0.00125781,0.00013505,0.00127047,-0.00002609,0.01312937,0.00171848,0
 .00022449,-0.07364016,0.01866648,-0.01561946,0.54957166,-0.00351830,-0
 .00277512,0.00127041,-0.01467207,0.03155127,0.00158947,-0.00068497,0.0
 0082428,0.00004585,-0.00062898,0.00074192,0.00013566,0.00088077,-0.000
 12541,-0.00071089,-0.12064681,0.11319532,0.00841092,0.01068541,-0.0160
 4161,-0.00194144,0.12916413,-0.00069860,0.00136698,0.00002593,-0.00197
 901,0.00237271,0.00014294,0.00006277,0.00007313,-0.00012009,0.00012601
 ,-0.00003658,0.00002541,0.00012541,0.00151239,0.00006779,0.11731492,-0
 .26531601,-0.01175176,0.01422768,-0.01833155,-0.00269597,-0.12462419,0
 .28050299,0.00164381,0.00099396,0.01312930,0.00107796,-0.00288618,0.00
 371038,0.00123040,-0.00208287,-0.00018003,-0.00167011,0.00230992,-0.00
 011833,-0.00071089,-0.00006764,-0.00756475,0.00918129,-0.01061405,-0.0
 3797431,-0.00212254,0.00060652,0.00197417,-0.00945137,0.01335151,0.025
 63691,0.00065591,0.00028985,-0.00062765,0.00118209,-0.00308682,-0.0006
 6616,-0.00007008,-0.00001709,-0.00000308,0.00004151,-0.00001723,0.0000
 1695,-0.00068494,-0.00006281,0.00123043,-0.01816312,-0.00007201,-0.009
 50688,-0.20882276,0.02287754,-0.12000726,0.00101843,-0.00021639,0.0006
 1263,0.22961429,-0.00021387,-0.00047560,-0.00035278,-0.00038804,-0.004
 47888,-0.00015300,0.00001708,0.00025601,-0.00006888,-0.00006644,0.0002
 8184,-0.00002546,-0.00082426,0.00007309,0.00208294,-0.02630826,0.00284
 424,-0.01773423,0.02197146,-0.05144604,0.01509452,0.00078693,0.0010756
 2,0.00014829,-0.02339610,0.05763385,-0.00027769,-0.00001748,0.00027675
 ,0.00067599,-0.00041466,-0.00022288,-0.00000308,0.00006888,-0.00004339
 ,-0.00010425,0.00002780,0.00001149,0.00004583,0.00012009,-0.00018004,0
 .00317282,0.00016887,0.00237975,-0.12034736,0.01581350,-0.13597738,-0.
 00026283,-0.00052743,0.00049490,0.13050023,-0.01649997,0.14648552,-0.0
 0029843,-0.00003269,0.00101283,0.00121947,-0.00264861,-0.00003215,0.00
 004151,0.00006643,-0.00010425,-0.00021125,0.00020301,-0.00013686,-0.00
 062900,-0.00012599,-0.00167010,-0.01150751,-0.00602278,0.01817720,-0.0
 7534850,-0.00757729,0.07856739,0.00014899,-0.00027599,-0.00021101,0.00
 954062,0.00388096,-0.02539363,0.08232208,0.00016191,-0.00047144,0.0012
 5778,0.00042701,-0.00281289,-0.00024905,0.00001722,0.00028185,-0.00002
 780,-0.00020302,0.00052724,0.00012409,-0.00074196,-0.00003655,-0.00230
 992,-0.01290005,-0.00360253,0.02608666,-0.01019575,-0.05157679,0.03322
 032,0.00057939,-0.00007930,-0.00095777,-0.00096281,-0.00042171,0.00373
 052,0.01266330,0.05872757,-0.00030345,-0.00009001,0.00013510,-0.001396
 24,0.00049437,0.00028980,0.00001695,0.00002547,0.00001149,-0.00013686,
 -0.00012408,0.00006889,0.00013564,-0.00002542,-0.00011838,0.00199055,0
 .00218529,0.00253012,0.07640278,0.02803638,-0.25997860,0.00047951,0.00
 062888,-0.00013640,0.00587818,0.00286248,-0.02046551,-0.08667405,-0.03
 167509,0.28438062,-0.10978359,-0.04112668,0.01598694,0.01492942,0.0111
 2981,-0.00531927,-0.01370394,-0.02273429,0.01046980,-0.00564998,-0.009
 28222,0.00227770,-0.00238696,0.00466673,-0.00007930,-0.00002770,-0.000
 39773,-0.00103391,-0.02215685,0.00917750,-0.00785638,-0.00028424,-0.00
 060700,0.00044013,-0.00050046,0.00149661,0.00097058,0.00077263,-0.0015
 7284,-0.00018628,0.48011468,-0.04163546,-0.14643371,0.02585087,-0.0126
 1986,-0.03279728,0.00764875,-0.00153253,-0.00197541,0.00135501,0.00185
 828,0.00174136,0.00002290,0.00273395,-0.00234835,0.00037688,-0.0016169
 1,0.00271910,0.00065149,0.02791315,-0.00010626,0.01361511,-0.00058892,
 0.00040485,-0.00029264,0.00357577,-0.00513056,-0.00177830,-0.00057648,
 0.00031220,0.00013362,-0.06049644,0.54310671,0.01663195,0.02584780,-0.
 09075115,-0.00181901,-0.00146359,0.00052428,-0.00922907,-0.01644934,0.
 00566184,0.01604324,0.02770035,-0.00923294,0.00079980,-0.00168527,0.00
 126834,0.00017938,-0.00029122,0.00064315,0.00664998,0.00280196,0.00545
 906,0.00012306,-0.00019506,-0.00024350,0.00186562,-0.00254321,-0.00025
 820,0.00142265,-0.00042268,0.00028040,-0.02647313,0.02371310,0.5682893
 3,-0.02215695,-0.00917802,-0.00785602,-0.00002770,0.00039781,-0.001033
 88,-0.00050041,-0.00149668,0.00097057,0.00077266,0.00157291,-0.0001863
 5,-0.00028425,0.00060699,0.00044007,0.01492966,-0.01112943,-0.00531885
 ,-0.10978464,0.04112706,0.01598623,-0.00238697,-0.00466678,-0.00007951
 ,-0.01370420,0.02273387,0.01046926,-0.00565044,0.00928283,0.00227770,-
 0.16423827,-0.00023609,-0.03991650,0.48011403,-0.02791365,-0.00010697,
 -0.01361494,0.00161683,0.00271913,-0.00065149,-0.00357570,-0.00513060,
 0.00177838,0.00057655,0.00031232,-0.00013372,0.00058892,0.00040486,0.0
 0029260,0.01262054,-0.03279676,-0.00764824,0.04163601,-0.14643279,-0.0
 2584918,-0.00273394,-0.00234834,-0.00037685,0.00153254,-0.00197525,-0.
 00135497,-0.00185832,0.00174116,-0.00002303,0.00023468,-0.08224490,0.0
 0076206,0.06049557,0.54310601,0.00665052,-0.00280172,0.00545932,0.0001
 7930,0.00029119,0.00064306,0.00186567,0.00254337,-0.00025831,0.0014227
 0,0.00042268,0.00028041,0.00012306,0.00019506,-0.00024350,-0.00181886,
 0.00146335,0.00052419,0.01663159,-0.02584601,-0.09075017,0.00079971,0.
 00168515,0.00126847,-0.00922963,0.01644965,0.00566173,0.01604350,-0.02
 769999,-0.00923225,-0.03991675,-0.00076304,-0.10292725,-0.02647424,-0.
 02371301,0.56828943,-0.00412077,-0.00101333,0.01908852,-0.00023980,0.0
 0092671,-0.00065878,0.00039302,0.00054353,0.00017448,-0.00122221,-0.00
 396271,0.00116586,-0.00004158,-0.00003992,-0.00017974,0.00021704,0.000
 06468,0.00006694,0.00182176,-0.00064774,-0.00034581,0.00011490,0.00004
 574,0.00014209,0.00027641,-0.00039830,0.00025727,-0.00033401,0.0001785
 0,0.00057857,-0.05109500,0.00258189,0.02534106,0.00171824,-0.00001465,
 -0.03350129,0.05886249,-0.00406790,-0.00076272,0.02796819,-0.00087053,
 0.00140647,0.00047200,0.00050570,0.00130539,-0.00038344,-0.00246203,-0
 .00411954,0.00192770,-0.00003865,0.00001920,-0.00036934,0.00012209,-0.
 00010100,-0.00017006,0.00015711,0.00025268,0.00097342,0.00006466,0.000
 02272,-0.00009032,-0.00003693,0.00002266,-0.00005523,0.00012673,0.0002
 0216,0.00003949,0.00245701,-0.05196005,-0.00364106,0.00020191,-0.00030
 073,-0.00068392,0.00190820,0.05283280,0.00153301,0.00002466,-0.0087354
 7,0.00046007,-0.00055879,0.00041271,0.00042375,0.00012822,0.00106799,0
 .00074791,0.00173859,0.00094935,-0.00007588,0.00017992,0.00007272,-0.0
 0043739,0.00046500,0.00014143,0.00101595,-0.00034666,0.00054655,-0.000
 06204,0.00007336,-0.00010696,-0.00003596,-0.00009450,0.00037365,-0.000
 75418,0.00051410,0.00043283,0.02579772,-0.00222897,-0.29875191,0.00001
 515,-0.00033641,-0.01560320,-0.02636822,0.00201374,0.32620341,0.010179
 39,-0.01633036,-0.00444679,-0.00242221,-0.00240335,0.00098096,0.000335
 12,0.00064816,-0.00039040,0.00101530,0.00055915,-0.00031157,0.00066562
 ,-0.00097961,0.00013401,-0.00012356,-0.00094481,0.00000087,-0.00503852
 ,-0.00180851,-0.00470704,0.00018564,0.00014587,-0.00003717,-0.00111180
 ,0.00189998,0.00051273,0.00014076,-0.00013741,0.00008271,-0.11215685,0
 .10667106,0.03223296,-0.01555131,0.02604544,0.00964889,-0.00171776,0.0
 0201295,0.00111313,0.12345780,0.01385972,-0.02213628,-0.00622377,-0.00
 493568,-0.00279802,0.00144229,-0.00027179,0.00028871,-0.00043041,0.000
 39072,0.00131076,0.00047173,0.00102769,-0.00127979,0.00024019,-0.00051
 894,0.00023416,-0.00000488,-0.00055494,0.00115884,0.00014771,0.0001344
 6,0.00004100,-0.00017102,-0.00017361,0.00014666,-0.00009539,0.00010639
 ,0.00001776,-0.00006900,0.10632141,-0.22665713,-0.05408588,-0.00093565
 ,0.00167064,0.00073143,-0.00029010,0.00028554,-0.00081121,-0.11475051,
 0.24690958,-0.00517104,0.01024372,0.00131948,0.00179271,0.00162810,0.0
 0037628,0.00004706,-0.00042753,-0.00005689,-0.00060451,-0.00000917,0.0
 0072042,-0.00033984,0.00052993,0.00012592,-0.00005334,-0.00017650,0.00
 003784,-0.00247747,-0.00061212,-0.00091800,-0.00001031,-0.00000083,-0.
 00008845,-0.00049823,0.00053485,0.00045247,-0.00039068,0.00013821,0.00
 013200,0.03280355,-0.05536541,-0.06807221,-0.00789669,0.01327545,0.003
 71387,0.01664975,-0.02808131,-0.00790476,-0.03537580,0.05824996,0.0692
 0672,0.00182173,0.00064779,-0.00034592,0.00021704,-0.00006467,0.000066
 96,0.00027641,0.00039831,0.00025726,-0.00033401,-0.00017851,0.00057860
 ,0.00011490,-0.00004574,0.00014208,-0.00023985,-0.00092667,-0.00065873
 ,-0.00412101,0.00101369,0.01908875,-0.00004158,0.00003993,-0.00017975,
 0.00039304,-0.00054349,0.00017452,-0.00122228,0.00396277,0.00116583,0.
 00171817,0.00001404,-0.03350131,-0.05109497,-0.00258151,0.02534180,-0.
 00588506,-0.00030919,-0.00315190,0.00125235,0.00019159,0.00074121,0.05
 886288,-0.00015710,0.00025267,-0.00097346,-0.00012207,-0.00010103,0.00
 017003,0.00003694,0.00002267,0.00005524,-0.00012677,0.00020215,-0.0000
 3947,-0.00006466,0.00002272,0.00009032,0.00087049,0.00140638,-0.000471
 94,0.00406814,-0.00076309,-0.02796808,0.00003863,0.00001916,0.00036936
 ,-0.00050571,0.00130541,0.00038340,0.00246207,-0.00411949,-0.00192759,
 -0.00020184,-0.00030069,0.00068330,-0.00245660,-0.05196004,0.00363693,
 0.00030906,0.00087980,-0.00036909,-0.00022886,0.00001467,0.00028892,-0
 .00190872,0.05283266,0.00101600,0.00034668,0.00054654,-0.00043734,-0.0
 0046501,0.00014139,-0.00003596,0.00009451,0.00037367,-0.00075418,-0.00
 051411,0.00043290,-0.00006204,-0.00007335,-0.00010695,0.00046004,0.000
 55870,0.00041265,0.00153293,-0.00002472,-0.00873484,-0.00007588,-0.000
 17992,0.00007271,0.00042374,-0.00012821,0.00106806,0.00074784,-0.00173
 850,0.00094942,0.00001516,0.00033617,-0.01560339,0.02579845,0.00222492
 ,-0.29875187,-0.00315193,0.00036904,0.00033498,-0.00022111,0.00039197,
 0.00056670,-0.02636888,-0.00200923,0.32620325,-0.00503869,0.00180834,-
 0.00470707,-0.00012357,0.00094479,0.00000087,-0.00111178,-0.00190001,0
 .00051276,0.00014079,0.00013744,0.00008269,0.00018565,-0.00014587,-0.0
 0003716,-0.00242234,0.00240334,0.00098084,0.01017934,0.01633068,-0.004
 44698,0.00066563,0.00097962,0.00013405,0.00033507,-0.00064815,-0.00039
 038,0.00101537,-0.00055910,-0.00031155,-0.01555104,-0.02604547,0.00964
 934,-0.11215449,-0.10666931,0.03223403,0.00125234,0.00022887,-0.000221
 12,0.00089006,0.00039923,0.00078362,-0.00171778,-0.00201300,0.00111315
 ,0.12345545,0.00055478,0.00115888,-0.00014782,0.00051892,0.00023421,0.
 00000488,0.00017358,0.00014661,0.00009540,-0.00010637,0.00001777,0.000
 06901,-0.00013446,0.00004099,0.00017100,0.00493575,-0.00279793,-0.0014
 4211,-0.01385938,-0.02213626,0.00622392,-0.00102768,-0.00127979,-0.000
 24020,0.00027179,0.00028865,0.00043037,-0.00039073,0.00131075,-0.00047
 175,0.00093530,0.00167011,-0.00073127,-0.10631971,-0.22665775,0.054088
 88,-0.00019157,0.00001466,-0.00039196,-0.00039921,0.00079289,-0.000216
 27,0.00029038,0.00028604,0.00081107,0.11474861,0.24691015,-0.00247749,
 0.00061203,-0.00091801,-0.00005333,0.00017649,0.00003781,-0.00049823,-
 0.00053486,0.00045251,-0.00039067,-0.00013819,0.00013203,-0.00001031,0
 .00000083,-0.00008846,0.00179259,-0.00162807,0.00037633,-0.00517060,-0
 .01024339,0.00131949,-0.00033982,-0.00052992,0.00012590,0.00004707,0.0
 0042750,-0.00005692,-0.00060450,0.00000911,0.00072046,-0.00789655,-0.0
 1327554,0.00371415,0.03280461,0.05536844,-0.06807391,0.00074122,-0.000
 28890,0.00056670,0.00078362,0.00021627,0.00038862,0.01664947,0.0280813
 7,-0.00790521,-0.03537709,-0.05825316,0.06920853\\-0.00000396,-0.00000
 322,-0.00000421,0.00000049,-0.00000253,0.00000293,0.00000102,-0.000000
 55,-0.00000240,-0.00000002,0.00000027,-0.00000229,0.00000045,0.0000000
 6,-0.00000111,-0.00000063,-0.00000159,-0.00000254,0.00000318,-0.000003
 16,0.00000351,-0.00000029,0.00000006,0.00000110,-0.00000080,-0.0000005
 7,0.00000221,0.00000030,0.00000010,0.00000222,-0.00000014,0.00000506,0
 .00000277,0.00000022,0.00000509,-0.00000240,0.00000127,0.00000037,0.00
 000035,0.00000044,0.00000008,0.00000029,-0.00000129,0.00000055,-0.0000
 0032,-0.00000023,0.,-0.00000012\\\@


 YOU ARE IN A MAZE OF TWISTY LITTLE PASSAGES.
 Job cpu time:       0 days  0 hours  0 minutes  0.6 seconds.
 Elapsed time:       0 days  0 hours  0 minutes 23.5 seconds.
 File lengths (MBytes):  RWF=     22 Int=      0 D2E=      0 Chk=      2 Scr=      2
 Normal termination of Gaussian 16 at Mon May 26 07:18:58 2025.
