 Entering Gaussian System, Link 0=/mlatom/software/Gaussian/g16-avx2/g16
 Input=gaussian.com
 Output=gaussian.log
 Initial command:
 /mlatom/software/Gaussian/g16-avx2/l1.exe "/mlatom/home/huangyh/projects/delta_learning/paper/revision1/Starting_from_ub3lyp_d4/c60/AL/ts1/Gau-144839.inp" -scrdir="/mlatom/home/huangyh/projects/delta_learning/paper/revision1/Starting_from_ub3lyp_d4/c60/AL/ts1/"
 Entering Link 1 = /mlatom/software/Gaussian/g16-avx2/l1.exe PID=    144840.
  
 Copyright (c) 1988,1990,1992,1993,1995,1998,2003,2009,2016,
            Gaussian, Inc.  All Rights Reserved.
  
 This is part of the Gaussian(R) 16 program.  It is based on
 the Gaussian(R) 09 system (copyright 2009, Gaussian, Inc.),
 the Gaussian(R) 03 system (copyright 2003, Gaussian, Inc.),
 the Gaussian(R) 98 system (copyright 1998, Gaussian, Inc.),
 the Gaussian(R) 94 system (copyright 1995, Gaussian, Inc.),
 the Gaussian 92(TM) system (copyright 1992, Gaussian, Inc.),
 the Gaussian 90(TM) system (copyright 1990, Gaussian, Inc.),
 the Gaussian 88(TM) system (copyright 1988, Gaussian, Inc.),
 the Gaussian 86(TM) system (copyright 1986, Carnegie Mellon
 University), and the Gaussian 82(TM) system (copyright 1983,
 Carnegie Mellon University). Gaussian is a federally registered
 trademark of Gaussian, Inc.
  
 This software contains proprietary and confidential information,
 including trade secrets, belonging to Gaussian, Inc.
  
 This software is provided under written license and may be
 used, copied, transmitted, or stored only in accord with that
 written license.
  
 The following legend is applicable only to US Government
 contracts under FAR:
  
                    RESTRICTED RIGHTS LEGEND
  
 Use, reproduction and disclosure by the US Government is
 subject to restrictions as set forth in subparagraphs (a)
 and (c) of the Commercial Computer Software - Restricted
 Rights clause in FAR 52.227-19.
  
 Gaussian, Inc.
 340 Quinnipiac St., Bldg. 40, Wallingford CT 06492
  
  
 ---------------------------------------------------------------
 Warning -- This program may not be used in any manner that
 competes with the business of Gaussian, Inc. or will provide
 assistance to any competitor of Gaussian, Inc.  The licensee
 of this program is prohibited from giving any competitor of
 Gaussian, Inc. access to this program.  By using this program,
 the user acknowledges that Gaussian, Inc. is engaged in the
 business of creating and licensing software in the field of
 computational chemistry and represents and warrants to the
 licensee that it is not a competitor of Gaussian, Inc. and that
 it will not use this program in any manner prohibited above.
 ---------------------------------------------------------------
  

 Cite this work as:
 Gaussian 16, Revision A.03,
 M. J. Frisch, G. W. Trucks, H. B. Schlegel, G. E. Scuseria, 
 M. A. Robb, J. R. Cheeseman, G. Scalmani, V. Barone, 
 G. A. Petersson, H. Nakatsuji, X. Li, M. Caricato, A. V. Marenich, 
 J. Bloino, B. G. Janesko, R. Gomperts, B. Mennucci, H. P. Hratchian, 
 J. V. Ortiz, A. F. Izmaylov, J. L. Sonnenberg, D. Williams-Young, 
 F. Ding, F. Lipparini, F. Egidi, J. Goings, B. Peng, A. Petrone, 
 T. Henderson, D. Ranasinghe, V. G. Zakrzewski, J. Gao, N. Rega, 
 G. Zheng, W. Liang, M. Hada, M. Ehara, K. Toyota, R. Fukuda, 
 J. Hasegawa, M. Ishida, T. Nakajima, Y. Honda, O. Kitao, H. Nakai, 
 T. Vreven, K. Throssell, J. A. Montgomery, Jr., J. E. Peralta, 
 F. Ogliaro, M. J. Bearpark, J. J. Heyd, E. N. Brothers, K. N. Kudin, 
 V. N. Staroverov, T. A. Keith, R. Kobayashi, J. Normand, 
 K. Raghavachari, A. P. Rendell, J. C. Burant, S. S. Iyengar, 
 J. Tomasi, M. Cossi, J. M. Millam, M. Klene, C. Adamo, R. Cammi, 
 J. W. Ochterski, R. L. Martin, K. Morokuma, O. Farkas, 
 J. B. Foresman, and D. J. Fox, Gaussian, Inc., Wallingford CT, 2016.
 
 ******************************************
 Gaussian 16:  ES64L-G16RevA.03 25-Dec-2016
                27-May-2025 
 ******************************************
 %nproc=1
 Will use up to    1 processors via shared memory.
 ----------------------------------------------------------------------
 #p Freq external='/mlatom/software/miniconda3/bin/python /mlatom/softw
 are/mlatom_xacs/mlatom/interfaces/gaussian_interface.py model_predict_
 kwargs'
 ----------------------------------------------------------------------
 1/10=4,18=10,30=1,38=1/1,3;
 2/12=2,17=6,18=5,40=1/2;
 3/11=9,25=1,30=1,41=9900000,43=2,71=2,140=1/1;
 4/20=17,22=2,24=3,113=1,114=1/2;
 6/7=2,8=2,9=2,10=2/1;
 7/8=1,25=1,44=-1/16;
 1/10=4,18=10,30=1/3;
 99//99;
 Leave Link    1 at Tue May 27 10:37:02 2025, MaxMem=           0 cpu:               0.0 elap:               0.1
 (Enter /mlatom/software/Gaussian/g16-avx2/l101.exe)
 ------------------------------------
 21ac72c0-7237-47e4-bf02-419e7bfe13d5
 ------------------------------------
 Symbolic Z-matrix:
 Charge =  0 Multiplicity = 1
 C                     1.971    -2.30415  -2.36599 
 C                     0.55552  -2.30546  -2.67443 
 C                    -0.03902  -1.17782  -3.23813 
 C                     0.76481  -0.00593  -3.52599 
 C                     2.12663  -0.00591  -3.23223 
 C                     2.74216  -1.17754  -2.6401 
 C                     2.16034  -3.02768  -1.12358 
 C                     0.86014  -3.47456  -0.66354 
 C                    -0.12969  -3.02547  -1.62401 
 C                    -1.37113  -2.57841  -1.17852 
 C                    -1.33731  -0.73411  -2.77886 
 C                    -0.03823   1.16747  -3.24202 
 C                     0.55709   2.29656  -2.68208 
 C                     1.97258   2.29531  -2.37365 
 C                     2.74296   1.16726  -2.644 
 C                     3.73503   0.72081  -1.68575 
 C                     3.73453  -0.72859  -1.68333 
 C                     3.91624  -1.42308  -0.48933 
 C                     3.11315  -2.59562  -0.20364 
 C                     0.56415  -3.4719    0.69725 
 C                     1.55564  -3.02289   1.65521 
 C                     2.80479  -2.59315   1.21325 
 C                     3.41701  -1.41902   1.80321 
 C                     4.10458  -0.69635   0.75107 
 C                     4.10506   0.69643   0.74874 
 C                     3.91723   1.41914  -0.49407 
 C                     3.11496   2.5932   -0.2123 
 C                     2.16245   3.02285  -1.13367 
 C                    -1.33684   0.72622  -2.78131 
 C                    -0.73214   3.0248    1.14765 
 C                    -1.67735   2.57993   0.22647 
 C                    -2.481     1.4173    0.50534 
 C                    -2.31017   0.73379   1.69486 
 C                    -1.32193   1.17776   2.65418 
 C                     0.86908   2.30436   2.69653 
 C                     1.55778   3.02776   1.64513 
 C                     0.5666    3.47427   0.68568 
 C                     0.86256   3.47218  -0.67512 
 C                    -0.12761   3.02058  -1.63409 
 C                    -1.36938   2.5759   -1.18713 
 C                    -2.48209  -1.41344   0.51003 
 C                    -2.31076  -0.72604   1.69727 
 C                    -1.3228   -1.1675    2.65806 
 C                    -0.7116    0.0059    3.25049 
 C                     0.64977   0.00591   3.54958 
 C                     1.45581   1.17744   3.26646 
 C                     2.80661   2.59567   1.2046 
 C                     3.418     1.42308   1.79847 
 C                     2.7563    0.72859   2.80889 
 C                     2.75579  -0.72071   2.8113 
 C                     1.45498  -1.16712   3.27037 
 C                     0.86744  -2.2955    2.70418 
 C                    -0.54821  -2.29656   2.39593 
 C                    -0.73428  -3.01996   1.15771 
 C                    -1.67919  -2.57751   0.23506 
 C                    -1.9898    1.41473  -1.77381 
 C                    -1.99072  -1.41881  -1.7691 
 C                    -0.54657   2.3054    2.38829 
 C                    -2.7962    0.72439  -0.75489 
 C                    -2.79676  -0.72456  -0.75259 
 C                    -5.59736  -0.712    -0.2136 
 C                    -5.59706   0.71205  -0.21383 
 C                    -6.09582  -1.48218   0.98784 
 H                    -6.16055  -2.55067   0.76532 
 H                    -5.41003  -1.36287   1.83695 
 H                    -7.08612  -1.14717   1.31147 
 C                    -6.09463   1.48269   0.98767 
 H                    -7.0852    1.14861   1.31147 
 H                    -5.40886   1.36279   1.83672 
 H                    -6.15842   2.55124   0.76516 
 C                    -4.87956   1.39908  -1.18427 
 H                    -4.73442   0.99633  -2.17632 
 H                    -4.79356   2.48045  -1.12141 
 C                    -4.87946  -1.39943  -1.18345 
 H                    -4.79368  -2.48081  -1.12035 
 H                    -4.73379  -0.99703  -2.17558 
 
 ITRead=  0  0  0  0  0  0  0  0  0  0  0  0  0  0  0  0  0  0  0  0
 ITRead=  0  0  0  0  0  0  0  0  0  0  0  0  0  0  0  0  0  0  0  0
 ITRead=  0  0  0  0  0  0  0  0  0  0  0  0  0  0  0  0  0  0  0  0
 ITRead=  0  0  0  0  0  0  0  0  0  0  0  0  0  0  0  0
 MicOpt= -1 -1 -1 -1 -1 -1 -1 -1 -1 -1 -1 -1 -1 -1 -1 -1 -1 -1 -1 -1
 MicOpt= -1 -1 -1 -1 -1 -1 -1 -1 -1 -1 -1 -1 -1 -1 -1 -1 -1 -1 -1 -1
 MicOpt= -1 -1 -1 -1 -1 -1 -1 -1 -1 -1 -1 -1 -1 -1 -1 -1 -1 -1 -1 -1
 MicOpt= -1 -1 -1 -1 -1 -1 -1 -1 -1 -1 -1 -1 -1 -1 -1 -1
 NAtoms=     76 NQM=       76 NQMF=       0 NMMI=      0 NMMIF=      0
                NMic=       0 NMicF=      0.
                    Isotopes and Nuclear Properties:
 (Nuclear quadrupole moments (NQMom) in fm**2, nuclear magnetic moments (NMagM)
  in nuclear magnetons)

  Atom         1           2           3           4           5           6           7           8           9          10
 IAtWgt=          12          12          12          12          12          12          12          12          12          12
 AtmWgt=  12.0000000  12.0000000  12.0000000  12.0000000  12.0000000  12.0000000  12.0000000  12.0000000  12.0000000  12.0000000
 NucSpn=           0           0           0           0           0           0           0           0           0           0
 AtZEff=  -0.0000000  -0.0000000  -0.0000000  -0.0000000  -0.0000000  -0.0000000  -0.0000000  -0.0000000  -0.0000000  -0.0000000
 NQMom=    0.0000000   0.0000000   0.0000000   0.0000000   0.0000000   0.0000000   0.0000000   0.0000000   0.0000000   0.0000000
 NMagM=    0.0000000   0.0000000   0.0000000   0.0000000   0.0000000   0.0000000   0.0000000   0.0000000   0.0000000   0.0000000
 AtZNuc=   6.0000000   6.0000000   6.0000000   6.0000000   6.0000000   6.0000000   6.0000000   6.0000000   6.0000000   6.0000000

  Atom        11          12          13          14          15          16          17          18          19          20
 IAtWgt=          12          12          12          12          12          12          12          12          12          12
 AtmWgt=  12.0000000  12.0000000  12.0000000  12.0000000  12.0000000  12.0000000  12.0000000  12.0000000  12.0000000  12.0000000
 NucSpn=           0           0           0           0           0           0           0           0           0           0
 AtZEff=  -0.0000000  -0.0000000  -0.0000000  -0.0000000  -0.0000000  -0.0000000  -0.0000000  -0.0000000  -0.0000000  -0.0000000
 NQMom=    0.0000000   0.0000000   0.0000000   0.0000000   0.0000000   0.0000000   0.0000000   0.0000000   0.0000000   0.0000000
 NMagM=    0.0000000   0.0000000   0.0000000   0.0000000   0.0000000   0.0000000   0.0000000   0.0000000   0.0000000   0.0000000
 AtZNuc=   6.0000000   6.0000000   6.0000000   6.0000000   6.0000000   6.0000000   6.0000000   6.0000000   6.0000000   6.0000000

  Atom        21          22          23          24          25          26          27          28          29          30
 IAtWgt=          12          12          12          12          12          12          12          12          12          12
 AtmWgt=  12.0000000  12.0000000  12.0000000  12.0000000  12.0000000  12.0000000  12.0000000  12.0000000  12.0000000  12.0000000
 NucSpn=           0           0           0           0           0           0           0           0           0           0
 AtZEff=  -0.0000000  -0.0000000  -0.0000000  -0.0000000  -0.0000000  -0.0000000  -0.0000000  -0.0000000  -0.0000000  -0.0000000
 NQMom=    0.0000000   0.0000000   0.0000000   0.0000000   0.0000000   0.0000000   0.0000000   0.0000000   0.0000000   0.0000000
 NMagM=    0.0000000   0.0000000   0.0000000   0.0000000   0.0000000   0.0000000   0.0000000   0.0000000   0.0000000   0.0000000
 AtZNuc=   6.0000000   6.0000000   6.0000000   6.0000000   6.0000000   6.0000000   6.0000000   6.0000000   6.0000000   6.0000000

  Atom        31          32          33          34          35          36          37          38          39          40
 IAtWgt=          12          12          12          12          12          12          12          12          12          12
 AtmWgt=  12.0000000  12.0000000  12.0000000  12.0000000  12.0000000  12.0000000  12.0000000  12.0000000  12.0000000  12.0000000
 NucSpn=           0           0           0           0           0           0           0           0           0           0
 AtZEff=  -0.0000000  -0.0000000  -0.0000000  -0.0000000  -0.0000000  -0.0000000  -0.0000000  -0.0000000  -0.0000000  -0.0000000
 NQMom=    0.0000000   0.0000000   0.0000000   0.0000000   0.0000000   0.0000000   0.0000000   0.0000000   0.0000000   0.0000000
 NMagM=    0.0000000   0.0000000   0.0000000   0.0000000   0.0000000   0.0000000   0.0000000   0.0000000   0.0000000   0.0000000
 AtZNuc=   6.0000000   6.0000000   6.0000000   6.0000000   6.0000000   6.0000000   6.0000000   6.0000000   6.0000000   6.0000000

  Atom        41          42          43          44          45          46          47          48          49          50
 IAtWgt=          12          12          12          12          12          12          12          12          12          12
 AtmWgt=  12.0000000  12.0000000  12.0000000  12.0000000  12.0000000  12.0000000  12.0000000  12.0000000  12.0000000  12.0000000
 NucSpn=           0           0           0           0           0           0           0           0           0           0
 AtZEff=  -0.0000000  -0.0000000  -0.0000000  -0.0000000  -0.0000000  -0.0000000  -0.0000000  -0.0000000  -0.0000000  -0.0000000
 NQMom=    0.0000000   0.0000000   0.0000000   0.0000000   0.0000000   0.0000000   0.0000000   0.0000000   0.0000000   0.0000000
 NMagM=    0.0000000   0.0000000   0.0000000   0.0000000   0.0000000   0.0000000   0.0000000   0.0000000   0.0000000   0.0000000
 AtZNuc=   6.0000000   6.0000000   6.0000000   6.0000000   6.0000000   6.0000000   6.0000000   6.0000000   6.0000000   6.0000000

  Atom        51          52          53          54          55          56          57          58          59          60
 IAtWgt=          12          12          12          12          12          12          12          12          12          12
 AtmWgt=  12.0000000  12.0000000  12.0000000  12.0000000  12.0000000  12.0000000  12.0000000  12.0000000  12.0000000  12.0000000
 NucSpn=           0           0           0           0           0           0           0           0           0           0
 AtZEff=  -0.0000000  -0.0000000  -0.0000000  -0.0000000  -0.0000000  -0.0000000  -0.0000000  -0.0000000  -0.0000000  -0.0000000
 NQMom=    0.0000000   0.0000000   0.0000000   0.0000000   0.0000000   0.0000000   0.0000000   0.0000000   0.0000000   0.0000000
 NMagM=    0.0000000   0.0000000   0.0000000   0.0000000   0.0000000   0.0000000   0.0000000   0.0000000   0.0000000   0.0000000
 AtZNuc=   6.0000000   6.0000000   6.0000000   6.0000000   6.0000000   6.0000000   6.0000000   6.0000000   6.0000000   6.0000000

  Atom        61          62          63          64          65          66          67          68          69          70
 IAtWgt=          12          12          12           1           1           1          12           1           1           1
 AtmWgt=  12.0000000  12.0000000  12.0000000   1.0078250   1.0078250   1.0078250  12.0000000   1.0078250   1.0078250   1.0078250
 NucSpn=           0           0           0           1           1           1           0           1           1           1
 AtZEff=  -0.0000000  -0.0000000  -0.0000000  -0.0000000  -0.0000000  -0.0000000  -0.0000000  -0.0000000  -0.0000000  -0.0000000
 NQMom=    0.0000000   0.0000000   0.0000000   0.0000000   0.0000000   0.0000000   0.0000000   0.0000000   0.0000000   0.0000000
 NMagM=    0.0000000   0.0000000   0.0000000   2.7928460   2.7928460   2.7928460   0.0000000   2.7928460   2.7928460   2.7928460
 AtZNuc=   6.0000000   6.0000000   6.0000000   1.0000000   1.0000000   1.0000000   6.0000000   1.0000000   1.0000000   1.0000000

  Atom        71          72          73          74          75          76
 IAtWgt=          12           1           1          12           1           1
 AtmWgt=  12.0000000   1.0078250   1.0078250  12.0000000   1.0078250   1.0078250
 NucSpn=           0           1           1           0           1           1
 AtZEff=  -0.0000000  -0.0000000  -0.0000000  -0.0000000  -0.0000000  -0.0000000
 NQMom=    0.0000000   0.0000000   0.0000000   0.0000000   0.0000000   0.0000000
 NMagM=    0.0000000   2.7928460   2.7928460   0.0000000   2.7928460   2.7928460
 AtZNuc=   6.0000000   1.0000000   1.0000000   6.0000000   1.0000000   1.0000000
 Leave Link  101 at Tue May 27 10:37:03 2025, MaxMem=   104857600 cpu:               0.2 elap:               0.3
 (Enter /mlatom/software/Gaussian/g16-avx2/l103.exe)

 GradGradGradGradGradGradGradGradGradGradGradGradGradGradGradGradGradGrad
 Berny optimization.
 Initialization pass.
 Trust Radius=3.00D-01 FncErr=1.00D-07 GrdErr=1.00D-07 EigMax=2.50D+02 EigMin=1.00D-04
 Number of steps in this run=      2 maximum allowed number of steps=      2.
 GradGradGradGradGradGradGradGradGradGradGradGradGradGradGradGradGradGrad

 Leave Link  103 at Tue May 27 10:37:04 2025, MaxMem=   104857600 cpu:               0.0 elap:               0.8
 (Enter /mlatom/software/Gaussian/g16-avx2/l202.exe)
 Stoichiometry    C66H10
 Framework group  C1[X(C66H10)]
 Deg. of freedom   222
 Full point group                 C1      NOp   1
 Largest Abelian subgroup         C1      NOp   1
 Largest concise Abelian subgroup C1      NOp   1
                         Standard orientation:                         
 ---------------------------------------------------------------------
 Center     Atomic      Atomic             Coordinates (Angstroms)
 Number     Number       Type             X           Y           Z
 ---------------------------------------------------------------------
      1          6           0        1.970999   -2.304153   -2.365989
      2          6           0        0.555517   -2.305455   -2.674426
      3          6           0       -0.039022   -1.177817   -3.238126
      4          6           0        0.764805   -0.005927   -3.525987
      5          6           0        2.126626   -0.005911   -3.232229
      6          6           0        2.742157   -1.177543   -2.640095
      7          6           0        2.160344   -3.027684   -1.123578
      8          6           0        0.860137   -3.474561   -0.663537
      9          6           0       -0.129693   -3.025473   -1.624013
     10          6           0       -1.371133   -2.578409   -1.178519
     11          6           0       -1.337308   -0.734108   -2.778862
     12          6           0       -0.038234    1.167468   -3.242017
     13          6           0        0.557094    2.296564   -2.682084
     14          6           0        1.972581    2.295307   -2.373652
     15          6           0        2.742962    1.167259   -2.643999
     16          6           0        3.735027    0.720809   -1.685751
     17          6           0        3.734526   -0.728590   -1.683334
     18          6           0        3.916244   -1.423076   -0.489326
     19          6           0        3.113150   -2.595622   -0.203640
     20          6           0        0.564152   -3.471897    0.697246
     21          6           0        1.555642   -3.022891    1.655211
     22          6           0        2.804788   -2.593149    1.213249
     23          6           0        3.417006   -1.419019    1.803214
     24          6           0        4.104577   -0.696355    0.751065
     25          6           0        4.105064    0.696430    0.748741
     26          6           0        3.917234    1.419144   -0.494067
     27          6           0        3.114960    2.593196   -0.212296
     28          6           0        2.162445    3.022850   -1.133667
     29          6           0       -1.336843    0.726222   -2.781310
     30          6           0       -0.732136    3.024795    1.147655
     31          6           0       -1.677354    2.579926    0.226474
     32          6           0       -2.480997    1.417302    0.505342
     33          6           0       -2.310173    0.733789    1.694861
     34          6           0       -1.321930    1.177763    2.654185
     35          6           0        0.869078    2.304361    2.696531
     36          6           0        1.557779    3.027763    1.645130
     37          6           0        0.566600    3.474269    0.685675
     38          6           0        0.862556    3.472177   -0.675118
     39          6           0       -0.127609    3.020584   -1.634087
     40          6           0       -1.369379    2.575901   -1.187127
     41          6           0       -2.482089   -1.413436    0.510034
     42          6           0       -2.310757   -0.726043    1.697268
     43          6           0       -1.322799   -1.167500    2.658058
     44          6           0       -0.711598    0.005899    3.250491
     45          6           0        0.649775    0.005913    3.549582
     46          6           0        1.455809    1.177442    3.266463
     47          6           0        2.806613    2.595666    1.204597
     48          6           0        3.418005    1.423079    1.798475
     49          6           0        2.756300    0.728592    2.808886
     50          6           0        2.755789   -0.720707    2.811302
     51          6           0        1.454983   -1.167116    3.270369
     52          6           0        0.867444   -2.295500    2.704185
     53          6           0       -0.548206   -2.296559    2.395929
     54          6           0       -0.734280   -3.019965    1.157715
     55          6           0       -1.679192   -2.577511    0.235064
     56          6           0       -1.989796    1.414732   -1.773814
     57          6           0       -1.990715   -1.418806   -1.769096
     58          6           0       -0.546571    2.305402    2.388286
     59          6           0       -2.796199    0.724394   -0.754885
     60          6           0       -2.796757   -0.724564   -0.752588
     61          6           0       -5.597363   -0.712002   -0.213598
     62          6           0       -5.597063    0.712048   -0.213829
     63          6           0       -6.095821   -1.482182    0.987843
     64          1           0       -6.160546   -2.550673    0.765319
     65          1           0       -5.410028   -1.362867    1.836954
     66          1           0       -7.086125   -1.147168    1.311470
     67          6           0       -6.094630    1.482691    0.987673
     68          1           0       -7.085204    1.148613    1.311465
     69          1           0       -5.408865    1.362788    1.836717
     70          1           0       -6.158425    2.551243    0.765157
     71          6           0       -4.879556    1.399079   -1.184269
     72          1           0       -4.734415    0.996331   -2.176323
     73          1           0       -4.793556    2.480450   -1.121412
     74          6           0       -4.879457   -1.399431   -1.183454
     75          1           0       -4.793678   -2.480811   -1.120354
     76          1           0       -4.733795   -0.997030   -2.175581
 ---------------------------------------------------------------------
 Rotational constants (GHZ):           0.0809805           0.0560678           0.0556643
 Leave Link  202 at Tue May 27 10:37:06 2025, MaxMem=   104857600 cpu:               0.0 elap:               1.1
 (Enter /mlatom/software/Gaussian/g16-avx2/l301.exe)
 Standard basis: STO-3G (5D, 7F)
 Ernie: Thresh=  0.10000D-02 Tol=  0.10000D-05 Strict=F.
 There are   340 symmetry adapted cartesian basis functions of A   symmetry.
 There are   340 symmetry adapted basis functions of A   symmetry.
   340 basis functions,  1020 primitive gaussians,   340 cartesian basis functions
   203 alpha electrons      203 beta electrons
       nuclear repulsion energy      9927.7504583815 Hartrees.
 IExCor=    0 DFT=F Ex=HF Corr=None ExCW=0 ScaHFX=  1.000000
 ScaDFX=  1.000000  1.000000  1.000000  1.000000 ScalE2=  1.000000  1.000000
 IRadAn=      5 IRanWt=     -1 IRanGd=            0 ICorTp=0 IEmpDi=  4
 NAtoms=   76 NActive=   76 NUniq=   76 SFac= 1.00D+00 NAtFMM=   60 NAOKFM=T Big=T
 Integral buffers will be    131072 words long.
 Raffenetti 1 integral format.
 Two-electron integral symmetry is turned on.
 Leave Link  301 at Tue May 27 10:37:07 2025, MaxMem=   104857600 cpu:               0.0 elap:               1.1
 (Enter /mlatom/software/Gaussian/g16-avx2/l402.exe)
 External calculation of energy, first and second derivatives.
 Running external command "/mlatom/software/miniconda3/bin/python /mlatom/software/mlatom_xacs/mlatom/interfaces/gaussian_interface.py model_predict_kwargs R"
         input file       "/mlatom/home/huangyh/projects/delta_learning/paper/revision1/Starting_from_ub3lyp_d4/c60/AL/ts1/Gau-144840.EIn"
         output file      "/mlatom/home/huangyh/projects/delta_learning/paper/revision1/Starting_from_ub3lyp_d4/c60/AL/ts1/Gau-144840.EOu"
         message file     "/mlatom/home/huangyh/projects/delta_learning/paper/revision1/Starting_from_ub3lyp_d4/c60/AL/ts1/Gau-144840.EMs"
         fchk file        "/mlatom/home/huangyh/projects/delta_learning/paper/revision1/Starting_from_ub3lyp_d4/c60/AL/ts1/Gau-144840.EFC"
         mat. el file     "/mlatom/home/huangyh/projects/delta_learning/paper/revision1/Starting_from_ub3lyp_d4/c60/AL/ts1/Gau-144840.EUF"
model loaded from /mlatom/home/huangyh/projects/delta_learning/paper/revision1/Starting_from_ub3lyp_d4/c60/AL/AL_main_model_C60_butadiene.npz
 Recovered energy= -2521.15458821     dipole=      0.000000000000      0.000000000000      0.000000000000
 Energy=    -2521.15459     NIter=   0.
 Dipole moment=       0.000000       0.000000       0.000000
 Leave Link  402 at Tue May 27 10:37:17 2025, MaxMem=   104857600 cpu:               0.1 elap:               9.8
 (Enter /mlatom/software/Gaussian/g16-avx2/l601.exe)
 Leave Link  601 at Tue May 27 10:37:17 2025, MaxMem=   104857600 cpu:               0.0 elap:               0.1
 (Enter /mlatom/software/Gaussian/g16-avx2/l716.exe)
 Dipole        = 0.00000000D+00 0.00000000D+00 0.00000000D+00
 Full mass-weighted force constant matrix:
 Low frequencies --- -306.5795   -1.1200   -0.7504   -0.5708   -0.1014    0.1683
 Low frequencies ---    0.1975   10.4114   65.1244
 ******    1 imaginary frequencies (negative Signs) ****** 
 Diagonal vibrational polarizability:
        0.0000000       0.0000000       0.0000000
 Harmonic frequencies (cm**-1), IR intensities (KM/Mole), Raman scattering
 activities (A**4/AMU), depolarization ratios for plane and unpolarized
 incident light, reduced masses (AMU), force constants (mDyne/A),
 and normal coordinates:
                      1                      2                      3
                      A                      A                      A
 Frequencies --   -306.5795                10.4114                65.1244
 Red. masses --      7.1461                 3.5833                 5.6372
 Frc consts  --      0.3957                 0.0002                 0.0141
 IR Inten    --      0.0000                 0.0000                 0.0000
  Atom  AN      X      Y      Z        X      Y      Z        X      Y      Z
     1   6    -0.00   0.00  -0.00     0.02   0.01  -0.01     0.04   0.00   0.00
     2   6    -0.00   0.00   0.00     0.02   0.00  -0.01     0.04   0.00  -0.02
     3   6    -0.01   0.00   0.02     0.01  -0.00  -0.00     0.05   0.00  -0.03
     4   6    -0.02   0.00   0.02    -0.00   0.01   0.00     0.06  -0.00  -0.02
     5   6    -0.01   0.00   0.00    -0.00   0.01  -0.00     0.05   0.00   0.00
     6   6    -0.00   0.00  -0.00     0.01   0.02  -0.00     0.04   0.00   0.02
     7   6    -0.00   0.00  -0.00     0.02   0.01  -0.01     0.02   0.00   0.00
     8   6    -0.01   0.01  -0.00     0.03  -0.01  -0.01     0.01   0.00  -0.02
     9   6    -0.00   0.01   0.00     0.02  -0.01  -0.01     0.02   0.00  -0.04
    10   6    -0.00   0.02   0.00     0.02  -0.02  -0.01     0.01  -0.00  -0.06
    11   6    -0.02  -0.01   0.02     0.00  -0.01  -0.00     0.04  -0.00  -0.06
    12   6    -0.01  -0.00   0.02    -0.01  -0.00   0.00     0.05  -0.00  -0.03
    13   6    -0.00  -0.00   0.00    -0.02   0.00   0.01     0.04  -0.00  -0.02
    14   6    -0.00  -0.00  -0.00    -0.02   0.01   0.01     0.04  -0.00   0.00
    15   6    -0.00  -0.00  -0.00    -0.01   0.02   0.00     0.04  -0.00   0.02
    16   6    -0.00  -0.00  -0.00    -0.01   0.02   0.00     0.03   0.00   0.03
    17   6    -0.00   0.00  -0.00     0.01   0.02  -0.00     0.03   0.00   0.03
    18   6    -0.00   0.00  -0.00     0.01   0.02  -0.01     0.00   0.00   0.04
    19   6    -0.00  -0.00  -0.00     0.02   0.01  -0.01    -0.00   0.00   0.02
    20   6    -0.00   0.01  -0.00     0.03  -0.01  -0.01    -0.01  -0.00  -0.02
    21   6    -0.00   0.00  -0.00     0.02  -0.01  -0.01    -0.03  -0.00  -0.01
    22   6    -0.00   0.00  -0.00     0.02   0.00  -0.01    -0.02  -0.00   0.02
    23   6    -0.00   0.00  -0.00     0.01   0.00  -0.01    -0.04  -0.00   0.03
    24   6    -0.00  -0.00  -0.00     0.01   0.01  -0.00    -0.02   0.00   0.04
    25   6    -0.00   0.00  -0.00    -0.01   0.01   0.00    -0.02   0.00   0.04
    26   6    -0.00  -0.00  -0.00    -0.01   0.02   0.01     0.00  -0.00   0.04
    27   6    -0.00   0.00  -0.00    -0.02   0.01   0.01    -0.00   0.00   0.02
    28   6    -0.00  -0.00  -0.00    -0.02   0.01   0.01     0.02  -0.00   0.00
    29   6    -0.02   0.01   0.02    -0.00  -0.01   0.00     0.04   0.00  -0.06
    30   6    -0.00  -0.01  -0.00    -0.02  -0.03   0.01    -0.02   0.00  -0.05
    31   6    -0.00  -0.02  -0.00    -0.02  -0.03   0.01    -0.00  -0.00  -0.06
    32   6    -0.03   0.00  -0.01    -0.01  -0.03   0.00    -0.00  -0.00  -0.08
    33   6    -0.01   0.01  -0.02    -0.01  -0.04   0.00    -0.02  -0.00  -0.08
    34   6    -0.01  -0.00  -0.02    -0.01  -0.04   0.00    -0.05   0.00  -0.06
    35   6    -0.00  -0.00  -0.00    -0.02  -0.02   0.01    -0.05   0.00  -0.02
    36   6    -0.00  -0.00  -0.00    -0.02  -0.01   0.01    -0.03   0.00  -0.01
    37   6    -0.00  -0.01  -0.00    -0.03  -0.01   0.01    -0.01   0.00  -0.02
    38   6    -0.01  -0.01  -0.00    -0.03  -0.01   0.01     0.01  -0.00  -0.02
    39   6    -0.00  -0.01   0.00    -0.02  -0.01   0.01     0.02  -0.00  -0.04
    40   6    -0.00  -0.02   0.00    -0.02  -0.02   0.01     0.01   0.00  -0.06
    41   6    -0.03  -0.00  -0.01     0.01  -0.04  -0.00    -0.00   0.00  -0.08
    42   6    -0.01  -0.01  -0.02     0.01  -0.04  -0.00    -0.02   0.00  -0.08
    43   6    -0.01   0.00  -0.02     0.01  -0.04  -0.00    -0.04  -0.00  -0.06
    44   6    -0.01  -0.00  -0.02     0.00  -0.03   0.00    -0.06  -0.00  -0.04
    45   6    -0.01  -0.00  -0.01     0.00  -0.02   0.00    -0.06  -0.00  -0.02
    46   6    -0.00  -0.00  -0.00    -0.01  -0.02   0.00    -0.06   0.00  -0.01
    47   6    -0.00  -0.00  -0.00    -0.02   0.00   0.01    -0.02   0.00   0.02
    48   6    -0.00  -0.00  -0.00    -0.01   0.00   0.01    -0.04   0.00   0.03
    49   6    -0.00  -0.00  -0.00    -0.01  -0.00   0.00    -0.05   0.00   0.02
    50   6    -0.00   0.00  -0.00     0.01  -0.00  -0.00    -0.05  -0.00   0.02
    51   6    -0.00   0.00  -0.00     0.01  -0.02  -0.00    -0.06  -0.00  -0.01
    52   6    -0.00   0.00  -0.00     0.02  -0.02  -0.01    -0.05  -0.00  -0.02
    53   6    -0.00   0.00  -0.00     0.02  -0.03  -0.01    -0.04  -0.00  -0.04
    54   6    -0.00   0.01  -0.00     0.02  -0.03  -0.01    -0.02  -0.00  -0.05
    55   6    -0.00   0.02  -0.00     0.02  -0.03  -0.01    -0.00   0.00  -0.06
    56   6    -0.03   0.00   0.00    -0.01  -0.02   0.01     0.01   0.00  -0.07
    57   6    -0.03  -0.00   0.00     0.01  -0.02  -0.00     0.01  -0.00  -0.07
    58   6    -0.00  -0.00  -0.00    -0.02  -0.03   0.01    -0.04   0.00  -0.04
    59   6    -0.29   0.08  -0.06    -0.01  -0.03  -0.00    -0.00   0.00  -0.08
    60   6    -0.29  -0.08  -0.06     0.01  -0.03   0.00    -0.00  -0.00  -0.08
    61   6     0.07   0.06   0.03    -0.00   0.07   0.07     0.03   0.00   0.19
    62   6     0.07  -0.06   0.03     0.00   0.07  -0.07     0.03   0.00   0.19
    63   6     0.00   0.00  -0.02     0.02   0.20   0.16     0.11   0.00   0.23
    64   1    -0.08   0.02  -0.11     0.03   0.17   0.28     0.12  -0.00   0.25
    65   1     0.04  -0.12  -0.03     0.02   0.30   0.14     0.16   0.02   0.19
    66   1     0.04   0.06   0.02     0.01   0.22   0.13     0.13  -0.02   0.29
    67   6     0.00   0.00  -0.02    -0.02   0.20  -0.16     0.12   0.00   0.23
    68   1     0.04  -0.06   0.02    -0.01   0.22  -0.13     0.13   0.02   0.28
    69   1     0.04   0.12  -0.03    -0.02   0.30  -0.15     0.16  -0.02   0.19
    70   1    -0.08  -0.02  -0.11    -0.03   0.17  -0.28     0.12   0.00   0.24
    71   6     0.39  -0.10   0.07     0.03  -0.04  -0.13    -0.05   0.00   0.13
    72   1    -0.18   0.07  -0.09     0.04  -0.14  -0.09    -0.15   0.01   0.11
    73   1     0.33  -0.09   0.11     0.04  -0.03  -0.24    -0.03   0.00   0.13
    74   6     0.39   0.10   0.07    -0.03  -0.04   0.13    -0.05  -0.00   0.13
    75   1     0.33   0.09   0.11    -0.04  -0.03   0.24    -0.03  -0.00   0.14
    76   1    -0.18  -0.07  -0.09    -0.04  -0.14   0.09    -0.15  -0.01   0.11
                      4                      5                      6
                      A                      A                      A
 Frequencies --    109.9192               144.2913               154.0407
 Red. masses --      4.3417                 3.4412                 3.7872
 Frc consts  --      0.0309                 0.0422                 0.0529
 IR Inten    --      0.0000                 0.0000                 0.0000
  Atom  AN      X      Y      Z        X      Y      Z        X      Y      Z
     1   6     0.03  -0.00   0.01    -0.01   0.01  -0.00    -0.03  -0.00   0.00
     2   6     0.03  -0.02   0.01    -0.01   0.02  -0.00    -0.03  -0.01   0.00
     3   6     0.01  -0.03   0.00    -0.01   0.02   0.00    -0.03  -0.00  -0.00
     4   6    -0.00  -0.03   0.00    -0.00   0.02  -0.00    -0.03  -0.00  -0.00
     5   6    -0.00  -0.01   0.00    -0.00   0.01  -0.00    -0.04  -0.00  -0.00
     6   6     0.02   0.00   0.00    -0.01   0.01  -0.00    -0.04  -0.00  -0.00
     7   6     0.04   0.00   0.01    -0.02   0.01  -0.01    -0.03  -0.00   0.00
     8   6     0.04  -0.01   0.01    -0.02   0.01  -0.01    -0.02  -0.01   0.01
     9   6     0.03  -0.03   0.01    -0.01   0.01  -0.01    -0.02  -0.01   0.00
    10   6     0.02  -0.04   0.01    -0.01   0.01  -0.00    -0.02  -0.01   0.01
    11   6     0.01  -0.05   0.00    -0.00   0.02   0.00    -0.02  -0.00   0.01
    12   6    -0.01  -0.03  -0.00     0.01   0.02  -0.00    -0.03   0.00  -0.00
    13   6    -0.03  -0.02  -0.01     0.01   0.02   0.00    -0.03   0.01   0.00
    14   6    -0.03  -0.00  -0.01     0.01   0.01   0.00    -0.03   0.00   0.00
    15   6    -0.02   0.00  -0.00     0.01   0.01   0.00    -0.04   0.00  -0.00
    16   6    -0.01   0.02  -0.00     0.00   0.00   0.00    -0.04  -0.00  -0.00
    17   6     0.01   0.02   0.00    -0.01   0.00  -0.00    -0.04   0.00  -0.00
    18   6     0.02   0.03   0.00    -0.01  -0.00  -0.00    -0.03   0.00  -0.00
    19   6     0.03   0.02   0.01    -0.01   0.00  -0.00    -0.03  -0.00  -0.00
    20   6     0.04  -0.01   0.01    -0.02   0.01  -0.00    -0.02  -0.01   0.01
    21   6     0.04   0.00   0.01    -0.02   0.01  -0.00    -0.02  -0.01   0.01
    22   6     0.03   0.02   0.01    -0.01   0.00  -0.01    -0.02  -0.00   0.00
    23   6     0.02   0.03   0.00    -0.01  -0.00  -0.00    -0.02  -0.00  -0.00
    24   6     0.01   0.04   0.00    -0.00  -0.00  -0.00    -0.03   0.00  -0.01
    25   6    -0.01   0.04  -0.00     0.00  -0.00   0.00    -0.03  -0.00  -0.01
    26   6    -0.02   0.03  -0.00     0.01  -0.00   0.00    -0.04  -0.00  -0.00
    27   6    -0.03   0.02  -0.01     0.01   0.00   0.00    -0.03   0.00  -0.00
    28   6    -0.04   0.00  -0.01     0.01   0.01   0.01    -0.03   0.00   0.00
    29   6    -0.01  -0.05  -0.00     0.00   0.02  -0.00    -0.02  -0.00   0.01
    30   6    -0.03  -0.03  -0.00     0.01   0.01   0.00    -0.01   0.01   0.02
    31   6    -0.02  -0.05  -0.00     0.01   0.01   0.00    -0.01   0.00   0.01
    32   6     0.01  -0.06  -0.00     0.01   0.01  -0.00     0.01  -0.00   0.01
    33   6    -0.00  -0.05  -0.00     0.01   0.02  -0.00     0.01  -0.00   0.01
    34   6    -0.01  -0.04  -0.00     0.01   0.02   0.00    -0.00   0.00   0.02
    35   6    -0.03  -0.01  -0.00     0.01   0.01   0.00    -0.01   0.01   0.01
    36   6    -0.04   0.00  -0.01     0.02   0.01   0.01    -0.02   0.01   0.01
    37   6    -0.04  -0.01  -0.01     0.02   0.01   0.01    -0.02   0.01   0.01
    38   6    -0.04  -0.01  -0.01     0.02   0.01   0.01    -0.02   0.01   0.01
    39   6    -0.03  -0.03  -0.01     0.01   0.01   0.01    -0.02   0.01   0.00
    40   6    -0.02  -0.04  -0.01     0.01   0.01   0.00    -0.02   0.01   0.01
    41   6    -0.01  -0.06   0.00    -0.01   0.01   0.00     0.01   0.00   0.01
    42   6     0.00  -0.05   0.00    -0.01   0.02   0.00     0.01   0.00   0.01
    43   6     0.01  -0.04   0.00    -0.01   0.02  -0.00    -0.00  -0.00   0.02
    44   6     0.00  -0.03   0.00    -0.00   0.01   0.00    -0.01  -0.00   0.03
    45   6     0.00  -0.01   0.00    -0.00   0.01   0.00    -0.00  -0.00   0.02
    46   6    -0.02   0.00  -0.00     0.01   0.00   0.00    -0.01   0.00   0.01
    47   6    -0.03   0.02  -0.01     0.01   0.00   0.01    -0.02   0.00   0.00
    48   6    -0.02   0.03  -0.00     0.01  -0.00   0.00    -0.02   0.00  -0.00
    49   6    -0.01   0.02  -0.00     0.00  -0.00   0.00    -0.01   0.00   0.00
    50   6     0.01   0.02   0.00    -0.00  -0.00  -0.00    -0.01  -0.00   0.00
    51   6     0.02   0.00   0.00    -0.01   0.00  -0.00    -0.01  -0.00   0.01
    52   6     0.03  -0.01   0.00    -0.01   0.01  -0.00    -0.01  -0.01   0.01
    53   6     0.03  -0.03   0.00    -0.01   0.01  -0.00    -0.01  -0.01   0.02
    54   6     0.03  -0.03   0.00    -0.01   0.01  -0.00    -0.01  -0.01   0.02
    55   6     0.02  -0.05   0.00    -0.01   0.01  -0.00    -0.01  -0.00   0.01
    56   6    -0.00  -0.06   0.00     0.00   0.02  -0.00    -0.00   0.00   0.01
    57   6     0.00  -0.06  -0.00    -0.00   0.02   0.00    -0.00  -0.00   0.01
    58   6    -0.03  -0.03  -0.00     0.01   0.01   0.00    -0.01   0.01   0.02
    59   6     0.01  -0.05   0.00    -0.01   0.00  -0.01     0.03  -0.01   0.01
    60   6    -0.01  -0.05  -0.00     0.01   0.00   0.01     0.03   0.01   0.01
    61   6    -0.04   0.14  -0.05    -0.07  -0.08   0.02     0.11  -0.00  -0.07
    62   6     0.04   0.14   0.05     0.07  -0.08  -0.02     0.11   0.00  -0.07
    63   6    -0.15   0.09  -0.13    -0.23  -0.01  -0.00     0.28  -0.01   0.00
    64   1    -0.29   0.12  -0.23    -0.40   0.00  -0.01     0.30  -0.01   0.02
    65   1    -0.15  -0.07  -0.12    -0.24  -0.13   0.02     0.38   0.03  -0.08
    66   1    -0.12   0.19  -0.12    -0.19   0.16  -0.04     0.31  -0.04   0.12
    67   6     0.15   0.09   0.13     0.24  -0.01   0.00     0.27   0.01   0.00
    68   1     0.12   0.19   0.12     0.20   0.16   0.05     0.30   0.04   0.12
    69   1     0.15  -0.07   0.11     0.25  -0.13  -0.02     0.37  -0.02  -0.08
    70   1     0.29   0.12   0.23     0.41   0.00   0.01     0.28   0.01   0.02
    71   6     0.05   0.15   0.07     0.09  -0.15  -0.06     0.03   0.01  -0.11
    72   1    -0.00   0.20   0.05     0.01  -0.18  -0.06     0.05  -0.02  -0.10
    73   1     0.14   0.14   0.14     0.10  -0.15  -0.11     0.02   0.01  -0.14
    74   6    -0.05   0.15  -0.07    -0.09  -0.16   0.06     0.03  -0.00  -0.12
    75   1    -0.14   0.14  -0.14    -0.10  -0.15   0.10     0.03  -0.00  -0.14
    76   1     0.00   0.20  -0.05    -0.01  -0.18   0.06     0.05   0.03  -0.10
                      7                      8                      9
                      A                      A                      A
 Frequencies --    189.4865               226.3127               238.9468
 Red. masses --      1.0346                 4.2001                 6.7534
 Frc consts  --      0.0219                 0.1267                 0.2272
 IR Inten    --      0.0000                 0.0000                 0.0000
  Atom  AN      X      Y      Z        X      Y      Z        X      Y      Z
     1   6    -0.00  -0.00  -0.00     0.01  -0.01   0.00     0.01  -0.04  -0.05
     2   6    -0.00  -0.00  -0.00     0.01   0.01   0.01     0.01  -0.04  -0.05
     3   6    -0.00  -0.00  -0.00     0.01   0.01   0.01     0.04  -0.01  -0.05
     4   6    -0.00  -0.00  -0.00     0.00   0.00  -0.00     0.02  -0.00  -0.08
     5   6    -0.00  -0.00  -0.00     0.00  -0.00  -0.00     0.02  -0.00  -0.08
     6   6    -0.00  -0.00  -0.00     0.01  -0.01  -0.00    -0.01  -0.02  -0.06
     7   6    -0.00  -0.00  -0.00     0.02  -0.01   0.00    -0.01  -0.04  -0.04
     8   6    -0.00  -0.00  -0.00     0.02   0.00   0.01    -0.00  -0.05  -0.02
     9   6    -0.00  -0.00  -0.00     0.02   0.02   0.01     0.02  -0.05  -0.04
    10   6     0.00   0.00   0.00     0.03   0.05   0.02     0.05  -0.03   0.00
    11   6     0.00  -0.00   0.00     0.01   0.02   0.01     0.07   0.00   0.01
    12   6    -0.00   0.00  -0.00    -0.01   0.01  -0.01     0.04   0.01  -0.05
    13   6    -0.00   0.00  -0.00    -0.01   0.01  -0.01     0.01   0.04  -0.05
    14   6    -0.00   0.00  -0.00    -0.01  -0.01  -0.00     0.01   0.04  -0.05
    15   6    -0.00   0.00  -0.00    -0.01  -0.01   0.00    -0.01   0.02  -0.06
    16   6    -0.00  -0.00  -0.00    -0.01  -0.01  -0.00    -0.06   0.00  -0.03
    17   6    -0.00   0.00  -0.00     0.01  -0.01   0.00    -0.06  -0.00  -0.03
    18   6    -0.00   0.00  -0.00     0.01  -0.02  -0.00    -0.09   0.00  -0.03
    19   6    -0.00  -0.00  -0.00     0.02  -0.02   0.00    -0.05  -0.02  -0.02
    20   6    -0.00  -0.00  -0.00     0.02  -0.01   0.01    -0.02  -0.06  -0.00
    21   6    -0.00  -0.00   0.00     0.02  -0.02   0.01    -0.04  -0.04   0.01
    22   6    -0.00  -0.00  -0.00     0.02  -0.03   0.01    -0.06  -0.02  -0.02
    23   6    -0.00   0.00  -0.00     0.02  -0.02   0.01    -0.11   0.00  -0.03
    24   6    -0.00   0.00  -0.00     0.01  -0.02   0.00    -0.13   0.00  -0.03
    25   6    -0.00  -0.00  -0.00    -0.01  -0.02  -0.00    -0.13  -0.00  -0.03
    26   6    -0.00  -0.00  -0.00    -0.01  -0.02  -0.00    -0.09  -0.00  -0.03
    27   6    -0.00   0.00  -0.00    -0.02  -0.02  -0.00    -0.05   0.02  -0.02
    28   6    -0.00   0.00  -0.00    -0.02  -0.01  -0.00    -0.01   0.04  -0.04
    29   6     0.00   0.00   0.00    -0.01   0.02  -0.01     0.07  -0.00   0.01
    30   6    -0.00   0.00   0.00    -0.02   0.01  -0.01    -0.01   0.06   0.03
    31   6     0.00  -0.00   0.00    -0.03   0.04  -0.01     0.04   0.04   0.01
    32   6     0.00  -0.00   0.00    -0.03   0.02  -0.01     0.10   0.00   0.03
    33   6    -0.00   0.00   0.00    -0.00   0.00  -0.01     0.04   0.00   0.04
    34   6    -0.00   0.00   0.00    -0.01  -0.01  -0.01    -0.01   0.02   0.06
    35   6    -0.00   0.00   0.00    -0.02  -0.03  -0.02    -0.04   0.04   0.03
    36   6    -0.00   0.00   0.00    -0.02  -0.02  -0.01    -0.04   0.04   0.01
    37   6    -0.00   0.00  -0.00    -0.02  -0.01  -0.01    -0.02   0.06  -0.00
    38   6    -0.00   0.00  -0.00    -0.02   0.00  -0.01    -0.00   0.05  -0.02
    39   6    -0.00   0.00  -0.00    -0.02   0.02  -0.01     0.02   0.05  -0.04
    40   6     0.00  -0.00   0.00    -0.03   0.05  -0.02     0.05   0.03   0.00
    41   6     0.00   0.00   0.00     0.03   0.02   0.01     0.10  -0.00   0.03
    42   6    -0.00  -0.00   0.00     0.00   0.00   0.01     0.04  -0.00   0.04
    43   6    -0.00  -0.00   0.00     0.00  -0.01   0.01    -0.01  -0.02   0.06
    44   6    -0.00   0.00   0.00    -0.00  -0.01  -0.00    -0.04   0.00   0.08
    45   6    -0.00   0.00  -0.00    -0.00  -0.02  -0.00    -0.05   0.00   0.06
    46   6    -0.00   0.00   0.00    -0.01  -0.02  -0.01    -0.06   0.01   0.02
    47   6    -0.00   0.00  -0.00    -0.02  -0.03  -0.01    -0.06   0.02  -0.02
    48   6    -0.00  -0.00  -0.00    -0.02  -0.02  -0.01    -0.11  -0.00  -0.03
    49   6    -0.00  -0.00  -0.00    -0.01  -0.02  -0.01    -0.09  -0.00  -0.02
    50   6    -0.00   0.00  -0.00     0.01  -0.02   0.01    -0.09   0.00  -0.02
    51   6    -0.00  -0.00   0.00     0.01  -0.02   0.01    -0.06  -0.01   0.02
    52   6    -0.00  -0.00   0.00     0.02  -0.03   0.02    -0.04  -0.04   0.03
    53   6    -0.00  -0.00   0.00     0.01  -0.01   0.02    -0.03  -0.04   0.04
    54   6    -0.00  -0.00   0.00     0.02   0.00   0.01    -0.01  -0.06   0.03
    55   6     0.00   0.00   0.00     0.03   0.04   0.01     0.04  -0.04   0.01
    56   6     0.00  -0.00   0.00    -0.02   0.04  -0.02     0.11  -0.00   0.03
    57   6     0.00   0.00   0.00     0.02   0.04   0.02     0.11   0.00   0.03
    58   6    -0.00   0.00   0.00    -0.01  -0.01  -0.02    -0.03   0.04   0.04
    59   6     0.00   0.00   0.00     0.01   0.04  -0.01     0.19  -0.02   0.06
    60   6     0.00  -0.00   0.00    -0.01   0.04   0.02     0.19   0.02   0.06
    61   6     0.02   0.00   0.01     0.06   0.01   0.02     0.11  -0.01   0.04
    62   6     0.02  -0.00   0.01    -0.06   0.01  -0.02     0.11   0.01   0.04
    63   6     0.00   0.00  -0.00    -0.07   0.00  -0.05    -0.07   0.01  -0.03
    64   1     0.38  -0.05   0.12    -0.24   0.03  -0.13    -0.23   0.03  -0.09
    65   1    -0.23   0.31   0.14    -0.06  -0.18  -0.04    -0.10  -0.15   0.02
    66   1    -0.17  -0.26  -0.26    -0.02   0.14  -0.04    -0.04   0.15  -0.07
    67   6     0.00  -0.00  -0.00     0.07   0.00   0.05    -0.07  -0.01  -0.03
    68   1    -0.17   0.26  -0.26     0.02   0.14   0.04    -0.04  -0.15  -0.07
    69   1    -0.23  -0.31   0.14     0.06  -0.18   0.04    -0.10   0.15   0.02
    70   1     0.38   0.05   0.12     0.24   0.03   0.13    -0.23  -0.03  -0.09
    71   6     0.02  -0.00   0.00    -0.29   0.04  -0.14     0.14   0.02   0.10
    72   1     0.01  -0.01   0.01    -0.17  -0.06  -0.08     0.25   0.03   0.12
    73   1     0.02  -0.00  -0.01    -0.36   0.05  -0.23     0.15   0.02   0.13
    74   6     0.02   0.00   0.00     0.29   0.04   0.14     0.14  -0.02   0.10
    75   1     0.02   0.00  -0.01     0.36   0.05   0.23     0.15  -0.02   0.13
    76   1     0.01   0.01   0.01     0.17  -0.06   0.08     0.25  -0.03   0.12
                     10                     11                     12
                      A                      A                      A
 Frequencies --    252.3545               253.1689               261.2183
 Red. masses --     11.3030                11.9545                11.3386
 Frc consts  --      0.4241                 0.4514                 0.4558
 IR Inten    --      0.0000                 0.0000                 0.0000
  Atom  AN      X      Y      Z        X      Y      Z        X      Y      Z
     1   6     0.05  -0.13  -0.13     0.02   0.05  -0.09     0.09  -0.00  -0.02
     2   6     0.02  -0.13  -0.14     0.02   0.05  -0.10     0.07   0.02   0.06
     3   6    -0.01  -0.11  -0.09     0.00   0.01  -0.16     0.08   0.03   0.11
     4   6    -0.00  -0.10   0.00     0.03  -0.00  -0.19     0.09  -0.00   0.08
     5   6    -0.00  -0.10   0.00     0.05  -0.00  -0.18     0.12   0.00  -0.03
     6   6     0.05  -0.11  -0.07     0.05   0.01  -0.13     0.13  -0.02  -0.06
     7   6     0.05  -0.09  -0.10    -0.01   0.14  -0.03     0.06  -0.02  -0.03
     8   6     0.03  -0.05  -0.10    -0.00   0.21  -0.00     0.03   0.02   0.02
     9   6     0.01  -0.09  -0.11     0.02   0.14  -0.03     0.04   0.05   0.06
    10   6     0.01  -0.04  -0.09     0.03   0.12  -0.00     0.02   0.03   0.09
    11   6    -0.01  -0.08  -0.06    -0.01   0.01  -0.11     0.10   0.02   0.15
    12   6     0.01  -0.11   0.09     0.00  -0.01  -0.16     0.08  -0.03   0.11
    13   6    -0.02  -0.13   0.14     0.02  -0.06  -0.09     0.07  -0.02   0.06
    14   6    -0.05  -0.13   0.13     0.02  -0.06  -0.09     0.09   0.00  -0.02
    15   6    -0.05  -0.11   0.07     0.05  -0.02  -0.13     0.13   0.02  -0.06
    16   6    -0.03  -0.08   0.04     0.03  -0.01  -0.07     0.18   0.02  -0.11
    17   6     0.03  -0.08  -0.04     0.03   0.01  -0.07     0.18  -0.02  -0.11
    18   6     0.05  -0.05  -0.04    -0.00   0.05  -0.02     0.12  -0.03  -0.09
    19   6     0.04  -0.05  -0.07    -0.03   0.11  -0.01     0.07  -0.02  -0.07
    20   6     0.03   0.05  -0.10    -0.00   0.21  -0.00    -0.04   0.02  -0.00
    21   6     0.01   0.08  -0.10    -0.02   0.14   0.02    -0.04   0.05  -0.05
    22   6     0.01   0.03  -0.07    -0.03   0.11   0.00    -0.03   0.03  -0.09
    23   6    -0.02   0.03  -0.05    -0.01   0.05   0.03    -0.05   0.03  -0.13
    24   6     0.01  -0.01  -0.03     0.01   0.01   0.01     0.04   0.00  -0.10
    25   6    -0.01  -0.01   0.03     0.01  -0.01   0.01     0.04   0.00  -0.10
    26   6    -0.05  -0.05   0.04    -0.00  -0.05  -0.02     0.12   0.03  -0.09
    27   6    -0.04  -0.05   0.07    -0.03  -0.11  -0.01     0.07   0.02  -0.07
    28   6    -0.05  -0.09   0.10    -0.01  -0.14  -0.03     0.06   0.02  -0.03
    29   6     0.01  -0.08   0.06    -0.01  -0.01  -0.11     0.10  -0.02   0.15
    30   6    -0.05   0.10   0.10     0.01  -0.15   0.03    -0.06   0.02   0.04
    31   6    -0.05   0.06   0.08     0.04  -0.13   0.01    -0.07   0.01   0.07
    32   6    -0.08   0.07   0.06     0.00  -0.07   0.03    -0.11   0.02   0.09
    33   6    -0.05   0.09   0.05    -0.03  -0.01   0.09    -0.17   0.01   0.10
    34   6    -0.05   0.12   0.08    -0.05  -0.01   0.14    -0.13   0.02   0.06
    35   6    -0.02   0.13   0.13    -0.01  -0.05   0.09    -0.07  -0.02  -0.05
    36   6    -0.01   0.08   0.10    -0.02  -0.14   0.03    -0.04  -0.05  -0.05
    37   6    -0.03   0.05   0.10    -0.00  -0.21   0.00    -0.03  -0.02  -0.00
    38   6    -0.03  -0.05   0.10    -0.00  -0.21   0.00     0.03  -0.02   0.02
    39   6    -0.01  -0.09   0.11     0.02  -0.15  -0.02     0.04  -0.05   0.06
    40   6    -0.01  -0.04   0.09     0.03  -0.12  -0.00     0.03  -0.03   0.09
    41   6     0.08   0.07  -0.06     0.00   0.07   0.03    -0.11  -0.02   0.09
    42   6     0.05   0.09  -0.05    -0.03   0.01   0.09    -0.17  -0.01   0.10
    43   6     0.05   0.12  -0.08    -0.05   0.02   0.14    -0.13  -0.02   0.06
    44   6     0.00   0.10  -0.00    -0.05   0.00   0.19    -0.12  -0.00   0.03
    45   6     0.00   0.10  -0.00    -0.02   0.00   0.19    -0.10   0.00  -0.07
    46   6     0.01   0.10   0.08     0.00  -0.01   0.15    -0.09  -0.02  -0.11
    47   6    -0.01   0.03   0.07    -0.03  -0.11   0.00    -0.03  -0.03  -0.09
    48   6     0.02   0.03   0.05    -0.01  -0.05   0.04    -0.05  -0.03  -0.13
    49   6     0.01   0.07   0.05     0.01  -0.01   0.09    -0.10  -0.02  -0.16
    50   6    -0.01   0.07  -0.05     0.01   0.01   0.09    -0.10   0.02  -0.16
    51   6    -0.01   0.10  -0.08     0.00   0.01   0.15    -0.09   0.02  -0.11
    52   6     0.02   0.12  -0.13    -0.01   0.05   0.09    -0.07   0.02  -0.05
    53   6     0.05   0.14  -0.14    -0.02   0.06   0.09    -0.09  -0.01   0.03
    54   6     0.05   0.09  -0.10     0.01   0.15   0.03    -0.06  -0.03   0.04
    55   6     0.05   0.06  -0.08     0.04   0.13   0.01    -0.07  -0.01   0.07
    56   6     0.03  -0.05   0.08     0.01  -0.06  -0.04     0.04  -0.03   0.12
    57   6    -0.03  -0.05  -0.08     0.01   0.06  -0.04     0.04   0.03   0.12
    58   6    -0.05   0.14   0.13    -0.02  -0.06   0.09    -0.09   0.01   0.03
    59   6    -0.02   0.01   0.03    -0.02  -0.01  -0.01    -0.05   0.00   0.08
    60   6     0.02   0.01  -0.03    -0.02   0.01  -0.01    -0.05  -0.00   0.08
    61   6     0.01   0.00   0.01    -0.01   0.00  -0.00    -0.02   0.00  -0.02
    62   6    -0.01   0.00  -0.00    -0.01  -0.00  -0.00    -0.02  -0.00  -0.02
    63   6    -0.02   0.00  -0.01     0.00   0.00   0.00     0.06  -0.01   0.02
    64   1    -0.11   0.01  -0.04     0.00   0.00   0.00     0.08  -0.01   0.03
    65   1     0.01  -0.07  -0.03     0.02   0.00  -0.01     0.10   0.02  -0.02
    66   1     0.01   0.07   0.02     0.01   0.00   0.02     0.07  -0.03   0.07
    67   6     0.02   0.00   0.01     0.00  -0.00   0.00     0.06   0.01   0.02
    68   1    -0.01   0.07  -0.02     0.01  -0.00   0.02     0.07   0.03   0.07
    69   1    -0.01  -0.07   0.03     0.02  -0.00  -0.01     0.10  -0.02  -0.02
    70   1     0.11   0.01   0.04     0.00  -0.00   0.01     0.08   0.01   0.03
    71   6    -0.05   0.00  -0.03    -0.01   0.00  -0.01    -0.02  -0.00  -0.03
    72   1    -0.04  -0.01  -0.02    -0.03   0.01  -0.02    -0.01  -0.01  -0.02
    73   1    -0.06   0.00  -0.04    -0.00   0.00  -0.00    -0.03  -0.00  -0.03
    74   6     0.05   0.00   0.03    -0.01  -0.00  -0.01    -0.02   0.00  -0.03
    75   1     0.06   0.00   0.04    -0.00   0.00  -0.00    -0.03   0.00  -0.03
    76   1     0.04  -0.01   0.02    -0.03  -0.01  -0.01    -0.01   0.01  -0.02
                     13                     14                     15
                      A                      A                      A
 Frequencies --    263.6459               293.2216               327.8388
 Red. masses --      8.6091                 1.0940                 7.9795
 Frc consts  --      0.3526                 0.0554                 0.5053
 IR Inten    --      0.0000                 0.0000                 0.0000
  Atom  AN      X      Y      Z        X      Y      Z        X      Y      Z
     1   6    -0.07   0.03  -0.00    -0.00  -0.00  -0.00    -0.06   0.07   0.04
     2   6    -0.06  -0.05  -0.05    -0.00  -0.01  -0.01    -0.06   0.01  -0.01
     3   6    -0.03  -0.05  -0.05    -0.00  -0.01  -0.00    -0.07  -0.00  -0.03
     4   6    -0.00  -0.03  -0.00    -0.00  -0.01  -0.00    -0.06   0.00   0.01
     5   6    -0.00   0.02   0.00    -0.00  -0.00   0.00    -0.06   0.00   0.09
     6   6    -0.05   0.04   0.02    -0.00  -0.00  -0.00    -0.04   0.03   0.07
     7   6    -0.10   0.06  -0.00    -0.00   0.00  -0.00    -0.04   0.11   0.04
     8   6    -0.09  -0.00  -0.02    -0.00  -0.00  -0.00    -0.02   0.05  -0.01
     9   6    -0.09  -0.07  -0.05    -0.00  -0.01  -0.00    -0.05  -0.03  -0.03
    10   6    -0.10  -0.11  -0.04    -0.00  -0.00  -0.00    -0.06  -0.07  -0.03
    11   6    -0.03  -0.07  -0.02     0.00  -0.00  -0.00    -0.07  -0.01  -0.03
    12   6     0.03  -0.05   0.05     0.00  -0.01   0.00    -0.07   0.00  -0.03
    13   6     0.06  -0.05   0.05     0.00  -0.01   0.01    -0.06  -0.01  -0.01
    14   6     0.07   0.03   0.00     0.00  -0.00   0.00    -0.06  -0.07   0.05
    15   6     0.04   0.04  -0.02     0.00  -0.00   0.00    -0.04  -0.03   0.07
    16   6     0.04   0.06  -0.00     0.00   0.00   0.00     0.05  -0.01   0.02
    17   6    -0.04   0.06   0.00    -0.00   0.00  -0.00     0.05   0.01   0.02
    18   6    -0.08   0.09  -0.00    -0.00   0.00  -0.00     0.12   0.02   0.02
    19   6    -0.12   0.12  -0.02    -0.00   0.01  -0.00     0.00   0.09   0.01
    20   6    -0.09  -0.00  -0.02    -0.00  -0.00  -0.00    -0.02   0.05  -0.02
    21   6    -0.09   0.07  -0.05    -0.00   0.00  -0.00    -0.03   0.11  -0.07
    22   6    -0.11   0.12  -0.04    -0.01   0.01  -0.00     0.00   0.09  -0.02
    23   6    -0.08   0.09  -0.04    -0.00   0.01  -0.00     0.10   0.02   0.03
    24   6    -0.05   0.09  -0.01    -0.00   0.01  -0.00     0.21  -0.01   0.05
    25   6     0.05   0.09   0.01     0.00   0.01   0.00     0.21   0.01   0.05
    26   6     0.08   0.09   0.00     0.00   0.00   0.00     0.12  -0.02   0.02
    27   6     0.12   0.12   0.02     0.00   0.01   0.00     0.00  -0.09   0.01
    28   6     0.10   0.06   0.00     0.00   0.00   0.00    -0.04  -0.11   0.04
    29   6     0.03  -0.07   0.02    -0.00  -0.00   0.00    -0.07   0.01  -0.03
    30   6     0.09  -0.07  -0.01     0.00  -0.00  -0.00    -0.05   0.03  -0.00
    31   6     0.10  -0.11   0.01     0.00  -0.00  -0.00    -0.05   0.07  -0.01
    32   6     0.05  -0.08  -0.01    -0.00  -0.00  -0.00     0.03   0.01   0.01
    33   6     0.03  -0.07  -0.01     0.00  -0.00  -0.00    -0.06   0.01   0.01
    34   6     0.04  -0.04  -0.03     0.01  -0.00  -0.00    -0.07   0.01   0.01
    35   6     0.06   0.04   0.03     0.00   0.00   0.00    -0.04  -0.06  -0.08
    36   6     0.09   0.07   0.05     0.00   0.00   0.00    -0.03  -0.11  -0.06
    37   6     0.09  -0.00   0.02     0.00  -0.00   0.00    -0.02  -0.05  -0.02
    38   6     0.09  -0.00   0.02     0.00  -0.00   0.00    -0.02  -0.05  -0.01
    39   6     0.09  -0.07   0.05     0.00  -0.01   0.00    -0.05   0.03  -0.03
    40   6     0.10  -0.11   0.04     0.00  -0.00   0.00    -0.06   0.07  -0.03
    41   6    -0.05  -0.08   0.01     0.00  -0.00   0.00     0.03  -0.01   0.01
    42   6    -0.02  -0.07   0.01    -0.00  -0.00   0.00    -0.06  -0.01   0.01
    43   6    -0.04  -0.04   0.03    -0.01  -0.00   0.00    -0.07  -0.01   0.01
    44   6     0.00  -0.03  -0.00     0.00  -0.00  -0.00    -0.06   0.00  -0.02
    45   6     0.00   0.03   0.00     0.00  -0.00  -0.00    -0.04  -0.00  -0.09
    46   6     0.03   0.04   0.04     0.00   0.00   0.00    -0.02  -0.03  -0.08
    47   6     0.11   0.12   0.04     0.01   0.01   0.00     0.00  -0.09  -0.02
    48   6     0.08   0.09   0.04     0.00   0.01   0.00     0.10  -0.02   0.03
    49   6     0.03   0.07   0.02     0.00   0.00   0.00     0.02  -0.01  -0.01
    50   6    -0.03   0.07  -0.02    -0.00   0.00  -0.00     0.02   0.01  -0.01
    51   6    -0.03   0.04  -0.04    -0.00   0.00  -0.00    -0.02   0.03  -0.08
    52   6    -0.06   0.04  -0.03    -0.00   0.00  -0.00    -0.04   0.06  -0.08
    53   6    -0.07  -0.05   0.01    -0.00  -0.00   0.00    -0.06   0.00  -0.02
    54   6    -0.09  -0.07   0.01    -0.00  -0.00   0.00    -0.05  -0.03  -0.00
    55   6    -0.10  -0.11  -0.01    -0.00  -0.00   0.00    -0.05  -0.07  -0.01
    56   6     0.06  -0.08   0.03    -0.00  -0.00  -0.00     0.00   0.02   0.00
    57   6    -0.06  -0.08  -0.03     0.00  -0.00   0.00     0.00  -0.02   0.00
    58   6     0.07  -0.05  -0.01     0.00  -0.00  -0.00    -0.06  -0.00  -0.02
    59   6     0.06  -0.08   0.00    -0.00   0.00  -0.00     0.17  -0.03   0.05
    60   6    -0.06  -0.08  -0.00     0.00   0.00   0.00     0.17   0.03   0.05
    61   6     0.03   0.01   0.01     0.01  -0.00   0.00     0.15  -0.01   0.01
    62   6    -0.03   0.01  -0.01    -0.01  -0.00  -0.00     0.15   0.01   0.01
    63   6     0.01  -0.00  -0.02    -0.04   0.00  -0.02    -0.01   0.04  -0.02
    64   1    -0.17   0.02  -0.09     0.32  -0.04   0.10    -0.12   0.05  -0.03
    65   1     0.10  -0.17  -0.07    -0.29   0.30   0.14    -0.06  -0.04   0.03
    66   1     0.08   0.12   0.09    -0.21  -0.23  -0.31     0.00   0.15  -0.10
    67   6    -0.01  -0.00   0.01     0.04   0.00   0.02    -0.01  -0.04  -0.02
    68   1    -0.08   0.12  -0.09     0.21  -0.23   0.31     0.00  -0.15  -0.10
    69   1    -0.10  -0.17   0.07     0.29   0.30  -0.14    -0.06   0.04   0.03
    70   1     0.17   0.02   0.09    -0.32  -0.04  -0.10    -0.12  -0.05  -0.03
    71   6    -0.16   0.02  -0.07    -0.03   0.01  -0.01     0.11   0.08   0.07
    72   1    -0.04  -0.05  -0.03    -0.03   0.01  -0.01     0.27   0.10   0.09
    73   1    -0.17   0.02  -0.12    -0.03   0.01   0.01     0.11   0.07   0.14
    74   6     0.16   0.02   0.07     0.03   0.01   0.01     0.11  -0.08   0.07
    75   1     0.17   0.02   0.12     0.03   0.01  -0.00     0.11  -0.07   0.14
    76   1     0.05  -0.05   0.03     0.03   0.01   0.01     0.27  -0.10   0.09
                     16                     17                     18
                      A                      A                      A
 Frequencies --    344.1657               346.7955               356.0209
 Red. masses --      2.7576                11.8252                11.8196
 Frc consts  --      0.1924                 0.8379                 0.8827
 IR Inten    --      0.0000                 0.0000                 0.0000
  Atom  AN      X      Y      Z        X      Y      Z        X      Y      Z
     1   6    -0.00   0.01   0.00     0.02   0.09   0.10    -0.01  -0.03   0.06
     2   6    -0.00  -0.00  -0.01     0.06  -0.04  -0.03     0.01   0.01  -0.03
     3   6     0.00   0.00  -0.01     0.03  -0.07  -0.09     0.03  -0.00  -0.08
     4   6     0.00   0.00  -0.01    -0.00  -0.02   0.00     0.06  -0.00   0.03
     5   6     0.00  -0.00  -0.00    -0.00   0.07  -0.00     0.01   0.00   0.23
     6   6     0.00   0.00   0.00    -0.03   0.11   0.11    -0.00   0.00   0.19
     7   6    -0.01   0.01   0.00    -0.02   0.09   0.10    -0.04  -0.12   0.01
     8   6    -0.01   0.01  -0.00     0.00  -0.00   0.02    -0.10  -0.04  -0.03
     9   6    -0.01  -0.01  -0.01     0.03  -0.08  -0.07    -0.05   0.05  -0.05
    10   6    -0.01  -0.02  -0.00    -0.01  -0.08  -0.12    -0.00   0.14  -0.04
    11   6     0.00   0.00   0.00    -0.01  -0.10  -0.10    -0.03  -0.00  -0.18
    12   6     0.00  -0.00  -0.01    -0.03  -0.07   0.09     0.03   0.00  -0.08
    13   6    -0.00   0.00  -0.01    -0.06  -0.04   0.03     0.01  -0.01  -0.03
    14   6    -0.00  -0.01   0.00    -0.02   0.09  -0.10    -0.01   0.03   0.06
    15   6     0.00  -0.00   0.00     0.03   0.11  -0.11    -0.00  -0.00   0.19
    16   6     0.01  -0.00   0.00     0.05   0.11  -0.09     0.03   0.01   0.14
    17   6     0.01   0.00   0.00    -0.05   0.11   0.09     0.03  -0.01   0.14
    18   6     0.01   0.00   0.00    -0.10   0.07   0.09     0.06  -0.12   0.04
    19   6    -0.01   0.02   0.00    -0.05   0.06   0.12     0.02  -0.17  -0.01
    20   6    -0.01   0.00  -0.00    -0.01  -0.02   0.02    -0.10   0.01  -0.03
    21   6    -0.01   0.01  -0.01    -0.02  -0.10   0.10    -0.05  -0.06  -0.06
    22   6    -0.01   0.01  -0.00    -0.00  -0.07   0.13    -0.01  -0.13  -0.03
    23   6     0.01   0.00   0.01     0.04  -0.08   0.12    -0.00  -0.07  -0.08
    24   6     0.02  -0.00   0.01    -0.02  -0.01   0.07     0.01  -0.03  -0.01
    25   6     0.02   0.00   0.01     0.02  -0.01  -0.07     0.01   0.03  -0.01
    26   6     0.01  -0.01   0.00     0.10   0.07  -0.09     0.06   0.12   0.04
    27   6    -0.01  -0.02   0.00     0.05   0.06  -0.12     0.02   0.17  -0.01
    28   6    -0.01  -0.02   0.00     0.02   0.09  -0.10    -0.04   0.12   0.01
    29   6     0.00  -0.00   0.00     0.01  -0.10   0.10    -0.03   0.00  -0.18
    30   6    -0.01   0.01   0.00    -0.01   0.07   0.07    -0.04  -0.11  -0.00
    31   6    -0.01   0.02  -0.00    -0.06   0.06   0.11     0.03  -0.19  -0.01
    32   6     0.01   0.01   0.00    -0.12   0.09   0.11     0.06  -0.13   0.04
    33   6     0.00   0.00   0.00    -0.06   0.11   0.09     0.00  -0.01   0.15
    34   6     0.00   0.00   0.00    -0.02   0.09   0.10    -0.00   0.00   0.17
    35   6    -0.00  -0.00  -0.01     0.06  -0.08  -0.07     0.01   0.01  -0.05
    36   6    -0.01  -0.01  -0.01     0.02  -0.10  -0.10    -0.05   0.06  -0.06
    37   6    -0.01  -0.00  -0.00     0.01  -0.02  -0.02    -0.10  -0.01  -0.03
    38   6    -0.01  -0.00  -0.00    -0.00  -0.00  -0.02    -0.10   0.04  -0.03
    39   6    -0.01   0.01  -0.01    -0.03  -0.08   0.07    -0.05  -0.05  -0.05
    40   6    -0.01   0.02  -0.00     0.01  -0.08   0.12    -0.00  -0.14  -0.03
    41   6     0.01  -0.01   0.00     0.12   0.09  -0.11     0.06   0.13   0.04
    42   6     0.00  -0.00   0.00     0.06   0.11  -0.09     0.00   0.01   0.15
    43   6     0.00  -0.00   0.00     0.02   0.09  -0.10    -0.00  -0.00   0.17
    44   6     0.00  -0.00  -0.00    -0.00   0.04  -0.00     0.03   0.00   0.19
    45   6     0.00   0.00  -0.00    -0.00  -0.05   0.00     0.07  -0.00  -0.01
    46   6     0.00   0.00  -0.00     0.03  -0.10  -0.10     0.04  -0.00  -0.11
    47   6    -0.01  -0.01  -0.00     0.00  -0.07  -0.13    -0.01   0.13  -0.04
    48   6     0.01  -0.00   0.01    -0.04  -0.08  -0.12    -0.00   0.07  -0.08
    49   6     0.01   0.00   0.01    -0.01  -0.11  -0.09    -0.00  -0.00  -0.16
    50   6     0.01  -0.00   0.01     0.01  -0.11   0.09    -0.00  -0.00  -0.16
    51   6     0.00   0.00  -0.00    -0.03  -0.10   0.10     0.04  -0.00  -0.11
    52   6    -0.00   0.00  -0.01    -0.06  -0.08   0.07     0.01  -0.01  -0.05
    53   6    -0.00  -0.00  -0.00    -0.04   0.05  -0.07     0.00   0.03   0.04
    54   6    -0.01  -0.01   0.00     0.01   0.07  -0.07    -0.04   0.11  -0.00
    55   6    -0.01  -0.02  -0.00     0.06   0.06  -0.11     0.03   0.19  -0.01
    56   6     0.01   0.00   0.00     0.05  -0.10   0.15    -0.01  -0.08  -0.09
    57   6     0.01  -0.00   0.00    -0.05  -0.10  -0.15    -0.01   0.07  -0.09
    58   6    -0.00   0.00  -0.00     0.04   0.05   0.07     0.00  -0.03   0.04
    59   6     0.02  -0.00   0.01    -0.03  -0.00   0.07     0.01  -0.03  -0.01
    60   6     0.02   0.00   0.01     0.03  -0.00  -0.07     0.01   0.03  -0.01
    61   6     0.01  -0.01   0.09     0.01   0.00   0.01     0.02  -0.00   0.01
    62   6     0.01   0.01   0.09    -0.01   0.00  -0.00     0.02   0.00   0.01
    63   6     0.01  -0.23  -0.05    -0.02   0.00  -0.01    -0.00  -0.03  -0.01
    64   1     0.06  -0.18  -0.27     0.00   0.00  -0.01    -0.01  -0.02  -0.05
    65   1    -0.03  -0.33  -0.01    -0.05   0.01   0.01    -0.01  -0.06  -0.00
    66   1    -0.01  -0.30  -0.02    -0.03  -0.00  -0.05    -0.00  -0.02  -0.02
    67   6     0.01   0.23  -0.05     0.02   0.00   0.01    -0.00   0.03  -0.01
    68   1    -0.01   0.30  -0.02     0.03  -0.00   0.05    -0.00   0.02  -0.02
    69   1    -0.03   0.33  -0.01     0.05   0.02  -0.01    -0.01   0.06  -0.00
    70   1     0.06   0.18  -0.27    -0.00   0.00   0.01    -0.01   0.02  -0.05
    71   6    -0.02  -0.11  -0.00    -0.02   0.00  -0.01     0.01  -0.00   0.01
    72   1     0.00  -0.25   0.06    -0.03   0.01  -0.02     0.02  -0.01   0.01
    73   1    -0.03  -0.10  -0.19    -0.03   0.00  -0.01     0.02  -0.00   0.00
    74   6    -0.02   0.11  -0.00     0.02   0.00   0.01     0.01   0.00   0.01
    75   1    -0.03   0.10  -0.19     0.03   0.00   0.01     0.02   0.00   0.00
    76   1     0.00   0.25   0.06     0.03   0.01   0.02     0.02   0.01   0.01
                     19                     20                     21
                      A                      A                      A
 Frequencies --    357.2591               359.2861               362.8607
 Red. masses --     11.8535                11.7661                11.9366
 Frc consts  --      0.8914                 0.8949                 0.9260
 IR Inten    --      0.0000                 0.0000                 0.0000
  Atom  AN      X      Y      Z        X      Y      Z        X      Y      Z
     1   6     0.05  -0.03  -0.17    -0.01  -0.03   0.04     0.16   0.06   0.00
     2   6     0.02  -0.04  -0.18    -0.02  -0.04   0.07     0.17   0.07   0.06
     3   6    -0.02  -0.04  -0.15    -0.03  -0.01   0.13     0.12   0.02   0.06
     4   6    -0.00   0.01  -0.00    -0.06   0.00   0.24     0.00   0.08   0.00
     5   6    -0.00   0.00  -0.00    -0.07  -0.00   0.17     0.00   0.12   0.00
     6   6     0.07  -0.04  -0.13    -0.01  -0.01   0.03     0.08   0.12  -0.02
     7   6    -0.01   0.10  -0.06     0.02  -0.06   0.01     0.12  -0.04  -0.03
     8   6    -0.00   0.26  -0.00     0.02  -0.06   0.05     0.09  -0.00   0.01
     9   6     0.03   0.10  -0.06    -0.00  -0.12   0.02     0.14   0.04   0.04
    10   6     0.02   0.01  -0.01    -0.03  -0.12  -0.06     0.09  -0.07   0.04
    11   6    -0.02  -0.07  -0.07    -0.09  -0.03  -0.05     0.07  -0.10   0.03
    12   6     0.02  -0.04   0.15    -0.03   0.01   0.13    -0.12   0.02  -0.06
    13   6    -0.02  -0.03   0.18    -0.02   0.04   0.07    -0.17   0.07  -0.06
    14   6    -0.05  -0.03   0.17    -0.01   0.03   0.04    -0.16   0.06  -0.00
    15   6    -0.07  -0.04   0.12    -0.01   0.01   0.03    -0.08   0.12   0.02
    16   6    -0.04  -0.07   0.04     0.13   0.02  -0.11    -0.05   0.09   0.01
    17   6     0.04  -0.07  -0.04     0.13  -0.02  -0.11     0.05   0.09  -0.01
    18   6     0.03  -0.06  -0.01     0.11  -0.04  -0.11     0.06  -0.03  -0.04
    19   6    -0.03   0.01  -0.01     0.05  -0.01  -0.05     0.08  -0.07  -0.03
    20   6     0.00   0.25   0.00     0.02   0.06   0.05    -0.09  -0.01  -0.01
    21   6    -0.03   0.09   0.06     0.00   0.11   0.03    -0.14   0.04  -0.03
    22   6    -0.02   0.00   0.01    -0.03   0.11  -0.06    -0.10  -0.06  -0.05
    23   6     0.03  -0.06   0.04    -0.09   0.10  -0.11    -0.10  -0.10  -0.04
    24   6     0.02  -0.07   0.01     0.01   0.01  -0.11    -0.01  -0.10  -0.01
    25   6    -0.02  -0.07  -0.01     0.01  -0.01  -0.11     0.01  -0.10   0.01
    26   6    -0.03  -0.06   0.01     0.11   0.04  -0.11    -0.06  -0.03   0.04
    27   6     0.03   0.01   0.01     0.05   0.01  -0.05    -0.08  -0.07   0.03
    28   6     0.01   0.10   0.06     0.02   0.06   0.01    -0.12  -0.04   0.03
    29   6     0.02  -0.07   0.07    -0.09   0.03  -0.05    -0.07  -0.11  -0.03
    30   6    -0.01   0.11  -0.06     0.03  -0.06   0.01     0.12  -0.05  -0.04
    31   6    -0.03   0.02  -0.01     0.04  -0.00  -0.05     0.07  -0.06  -0.03
    32   6     0.04  -0.06  -0.02     0.10  -0.04  -0.11     0.03  -0.02  -0.03
    33   6     0.04  -0.07  -0.04     0.15  -0.03  -0.11     0.04   0.09  -0.00
    34   6     0.07  -0.03  -0.12    -0.00  -0.02   0.04     0.07   0.11  -0.02
    35   6     0.02  -0.04  -0.18    -0.01  -0.04   0.08     0.16   0.06   0.06
    36   6     0.03   0.09  -0.06     0.00  -0.11   0.03     0.14   0.04   0.03
    37   6    -0.00   0.25  -0.00     0.02  -0.06   0.05     0.09  -0.01   0.00
    38   6     0.00   0.26   0.00     0.02   0.06   0.05    -0.09  -0.00  -0.01
    39   6    -0.03   0.10   0.06     0.00   0.12   0.02    -0.14   0.04  -0.04
    40   6    -0.02   0.01   0.01    -0.03   0.12  -0.06    -0.09  -0.06  -0.04
    41   6    -0.04  -0.06   0.02     0.10   0.04  -0.11    -0.03  -0.02   0.03
    42   6    -0.04  -0.07   0.04     0.15   0.03  -0.11    -0.04   0.09   0.00
    43   6    -0.07  -0.03   0.12    -0.00   0.02   0.04    -0.07   0.11   0.02
    44   6    -0.00   0.01  -0.00    -0.06  -0.00   0.19     0.00   0.12   0.00
    45   6    -0.00   0.00   0.00    -0.05   0.00   0.28     0.00   0.08   0.00
    46   6    -0.02  -0.04  -0.15    -0.03  -0.01   0.15     0.12   0.03   0.06
    47   6     0.02  -0.00  -0.01    -0.03  -0.11  -0.06     0.09  -0.06   0.05
    48   6    -0.03  -0.06  -0.04    -0.09  -0.10  -0.11     0.10  -0.10   0.04
    49   6    -0.02  -0.07  -0.06    -0.10  -0.03  -0.05     0.08  -0.10   0.04
    50   6     0.02  -0.07   0.06    -0.10   0.03  -0.05    -0.08  -0.10  -0.04
    51   6     0.02  -0.04   0.15    -0.03   0.01   0.15    -0.12   0.03  -0.06
    52   6    -0.02  -0.04   0.18    -0.01   0.04   0.08    -0.16   0.06  -0.06
    53   6    -0.05  -0.03   0.17    -0.00   0.03   0.04    -0.15   0.05   0.00
    54   6     0.01   0.11   0.06     0.03   0.06   0.01    -0.12  -0.05   0.04
    55   6     0.03   0.01   0.01     0.04   0.00  -0.05    -0.07  -0.06   0.03
    56   6     0.03  -0.07   0.05    -0.08   0.11  -0.11    -0.07  -0.11  -0.03
    57   6    -0.03  -0.07  -0.05    -0.08  -0.11  -0.11     0.07  -0.11   0.03
    58   6     0.05  -0.03  -0.17    -0.00  -0.03   0.04     0.15   0.05  -0.00
    59   6     0.05  -0.08   0.01     0.02   0.01  -0.11     0.00  -0.10   0.00
    60   6    -0.05  -0.08  -0.01     0.02  -0.01  -0.11    -0.00  -0.10  -0.00
    61   6    -0.01  -0.00  -0.00     0.01   0.00   0.01     0.01   0.01  -0.01
    62   6     0.01  -0.00   0.00     0.01  -0.00   0.01    -0.01   0.01   0.01
    63   6     0.00   0.01   0.00    -0.03  -0.01  -0.01     0.01   0.02  -0.01
    64   1     0.01   0.00   0.02    -0.03  -0.00  -0.02     0.01   0.01  -0.01
    65   1     0.01   0.02  -0.00    -0.05  -0.02   0.01     0.01   0.02  -0.01
    66   1     0.01   0.01   0.01    -0.03  -0.00  -0.04     0.01   0.01  -0.01
    67   6    -0.00   0.01  -0.00    -0.03   0.01  -0.01    -0.01   0.01   0.01
    68   1    -0.01   0.01  -0.01    -0.03   0.00  -0.04    -0.01   0.01   0.01
    69   1    -0.01   0.01   0.00    -0.05   0.02   0.01    -0.01   0.02   0.01
    70   1    -0.01   0.00  -0.02    -0.03   0.00  -0.02    -0.01   0.01   0.01
    71   6     0.00  -0.00   0.01    -0.01  -0.01  -0.00    -0.03  -0.00  -0.00
    72   1     0.06  -0.01   0.02    -0.06  -0.01  -0.01    -0.02  -0.02   0.01
    73   1     0.04  -0.01   0.02    -0.01  -0.01  -0.02     0.00  -0.00  -0.02
    74   6    -0.00  -0.00  -0.01    -0.01   0.01  -0.00     0.03   0.00   0.00
    75   1    -0.04  -0.01  -0.02    -0.01   0.01  -0.02    -0.00  -0.00   0.02
    76   1    -0.06  -0.01  -0.02    -0.06   0.01  -0.01     0.02  -0.02  -0.01
                     22                     23                     24
                      A                      A                      A
 Frequencies --    363.2805               363.5344               364.1557
 Red. masses --     11.5255                11.6575                11.5407
 Frc consts  --      0.8962                 0.9077                 0.9017
 IR Inten    --      0.0000                 0.0000                 0.0000
  Atom  AN      X      Y      Z        X      Y      Z        X      Y      Z
     1   6     0.01   0.01   0.01    -0.09   0.09   0.01    -0.04  -0.06   0.09
     2   6     0.02  -0.01  -0.04    -0.05   0.13  -0.01    -0.00  -0.06   0.08
     3   6     0.12   0.04   0.04     0.01   0.17   0.00     0.11  -0.04  -0.04
     4   6     0.17   0.00   0.06    -0.00   0.20  -0.00     0.07  -0.00  -0.11
     5   6     0.19   0.00   0.00    -0.00   0.13   0.00     0.02   0.00  -0.10
     6   6     0.13  -0.03   0.00    -0.09   0.06   0.00    -0.06  -0.04  -0.04
     7   6    -0.13   0.04   0.01    -0.07   0.00  -0.02    -0.08  -0.04   0.12
     8   6    -0.16   0.00  -0.05    -0.04  -0.01  -0.02    -0.07  -0.02   0.17
     9   6    -0.11  -0.03  -0.09    -0.02   0.00  -0.07    -0.01  -0.05   0.11
    10   6    -0.13  -0.07  -0.05    -0.02  -0.09  -0.07     0.00  -0.02   0.04
    11   6     0.13   0.02   0.09     0.00   0.08  -0.00     0.14  -0.01  -0.06
    12   6     0.12  -0.03   0.04    -0.01   0.17  -0.00     0.11   0.04  -0.04
    13   6     0.02   0.02  -0.03     0.05   0.13   0.01     0.00   0.06   0.08
    14   6     0.02  -0.01   0.01     0.09   0.09  -0.02    -0.04   0.06   0.09
    15   6     0.14   0.03   0.00     0.09   0.06  -0.00    -0.06   0.05  -0.04
    16   6     0.14   0.01  -0.00     0.06  -0.10  -0.01    -0.10   0.01  -0.07
    17   6     0.14  -0.02  -0.00    -0.06  -0.10   0.01    -0.10  -0.01  -0.07
    18   6    -0.02  -0.01   0.02    -0.06  -0.16   0.00    -0.06  -0.03  -0.10
    19   6    -0.14   0.07  -0.01    -0.05  -0.13   0.03    -0.05  -0.02   0.04
    20   6    -0.16  -0.00  -0.05     0.05  -0.01   0.02    -0.06   0.02   0.17
    21   6    -0.12   0.03  -0.08     0.03  -0.00   0.07    -0.01   0.04   0.11
    22   6    -0.13   0.06  -0.05     0.03  -0.10   0.08     0.01   0.01   0.04
    23   6    -0.02  -0.01  -0.00    -0.00  -0.06   0.07     0.12   0.01  -0.07
    24   6    -0.00  -0.01   0.02    -0.01  -0.16   0.01     0.06  -0.01  -0.15
    25   6    -0.00   0.00   0.02     0.01  -0.16  -0.01     0.06   0.00  -0.15
    26   6    -0.01   0.00   0.02     0.06  -0.16  -0.00    -0.06   0.03  -0.09
    27   6    -0.14  -0.07  -0.01     0.05  -0.13  -0.03    -0.05   0.02   0.04
    28   6    -0.13  -0.04   0.01     0.07   0.00   0.02    -0.08   0.04   0.12
    29   6     0.13  -0.02   0.09    -0.01   0.08   0.00     0.14   0.01  -0.06
    30   6    -0.13   0.05   0.02    -0.08   0.00  -0.02    -0.08  -0.05   0.12
    31   6    -0.14   0.07  -0.01    -0.05  -0.13   0.03    -0.04  -0.03   0.03
    32   6    -0.01  -0.00   0.01    -0.05  -0.16  -0.01    -0.05  -0.04  -0.10
    33   6     0.17  -0.02  -0.01    -0.06  -0.11   0.01    -0.10  -0.01  -0.07
    34   6     0.14  -0.03   0.01    -0.09   0.05  -0.00    -0.07  -0.04  -0.04
    35   6     0.01  -0.00  -0.02    -0.06   0.13  -0.01    -0.01  -0.06   0.07
    36   6    -0.12  -0.03  -0.08    -0.02  -0.00  -0.07    -0.01  -0.05   0.11
    37   6    -0.16   0.00  -0.05    -0.04  -0.01  -0.02    -0.07  -0.02   0.17
    38   6    -0.16  -0.00  -0.05     0.04  -0.01   0.02    -0.07   0.02   0.17
    39   6    -0.11   0.03  -0.09     0.02   0.00   0.07    -0.01   0.05   0.11
    40   6    -0.12   0.06  -0.05     0.02  -0.09   0.07     0.00   0.01   0.04
    41   6    -0.01  -0.00   0.01     0.05  -0.16   0.01    -0.05   0.04  -0.10
    42   6     0.17   0.02  -0.01     0.06  -0.11  -0.00    -0.10   0.01  -0.07
    43   6     0.14   0.03   0.01     0.09   0.05   0.00    -0.07   0.05  -0.04
    44   6     0.18   0.00   0.03    -0.00   0.12  -0.00     0.01   0.00  -0.10
    45   6     0.17   0.00   0.08    -0.00   0.20  -0.00     0.06  -0.00  -0.13
    46   6     0.11   0.04   0.05     0.00   0.18  -0.00     0.10  -0.05  -0.06
    47   6    -0.13  -0.06  -0.05    -0.02  -0.10  -0.08     0.00  -0.02   0.05
    48   6    -0.02   0.01  -0.00     0.00  -0.06  -0.07     0.12  -0.01  -0.07
    49   6     0.11   0.02   0.07     0.00   0.09  -0.01     0.15  -0.01  -0.06
    50   6     0.11  -0.02   0.07    -0.01   0.09   0.01     0.15   0.01  -0.06
    51   6     0.11  -0.04   0.05    -0.01   0.18  -0.00     0.10   0.05  -0.06
    52   6     0.02   0.01  -0.02     0.06   0.13   0.01    -0.00   0.06   0.07
    53   6     0.01  -0.03   0.02     0.10   0.09  -0.02    -0.04   0.06   0.09
    54   6    -0.13  -0.05   0.02     0.08   0.01   0.01    -0.08   0.05   0.12
    55   6    -0.13  -0.08  -0.01     0.05  -0.13  -0.03    -0.04   0.03   0.04
    56   6    -0.01  -0.01   0.00    -0.01  -0.06   0.06     0.10   0.02  -0.08
    57   6    -0.01   0.01  -0.00     0.01  -0.06  -0.06     0.10  -0.02  -0.08
    58   6     0.01   0.03   0.03    -0.10   0.09   0.01    -0.05  -0.06   0.09
    59   6    -0.04  -0.00   0.01     0.02  -0.16   0.01     0.05  -0.01  -0.16
    60   6    -0.04  -0.00   0.01    -0.02  -0.16  -0.01     0.05   0.00  -0.16
    61   6    -0.03   0.01  -0.02     0.01   0.02  -0.01     0.06  -0.00   0.04
    62   6    -0.03  -0.01  -0.02    -0.01   0.02   0.01     0.06   0.00   0.04
    63   6    -0.01   0.05   0.02     0.00   0.01  -0.03    -0.02  -0.00   0.00
    64   1     0.01   0.04   0.07     0.06   0.01  -0.03    -0.07   0.01  -0.02
    65   1     0.00   0.10   0.00    -0.03   0.04  -0.01    -0.06  -0.05   0.04
    66   1    -0.01   0.05   0.01    -0.02  -0.03  -0.07    -0.02   0.04  -0.04
    67   6    -0.01  -0.05   0.02    -0.00   0.01   0.03    -0.02   0.00   0.00
    68   1    -0.01  -0.05   0.01     0.03  -0.03   0.07    -0.02  -0.04  -0.04
    69   1     0.00  -0.10   0.00     0.03   0.04   0.01    -0.06   0.05   0.04
    70   1     0.01  -0.04   0.07    -0.06   0.01   0.03    -0.07  -0.01  -0.02
[...]
 000287,-0.00010418,-0.00004312,-0.00008956,0.00017422,-0.00006018,0.00
 007285,-0.00000534,0.00000012,-0.00000210,-0.00000020,-0.00000008,-0.0
 0000003,0.,0.,0.,0.,0.,0.,0.,0.,0.,0.,0.,0.,-0.00000600,-0.00000295,-0
 .00000176,0.00107608,0.00041241,0.00038300,0.00007823,0.00008620,-0.00
 010781,-0.00025941,-0.00069095,-0.00013967,0.00021438,0.00220442,-0.00
 029719,0.00092736,-0.00001822,0.00192762,0.00071309,0.00044160,0.00073
 388,-0.00005984,-0.00001941,-0.00003240,0.00000838,0.00000451,0.000000
 56,0.00001460,0.00000773,0.00001984,-0.00002443,-0.00001003,0.00001712
 ,-0.00001369,-0.00002922,-0.00010041,-0.00022874,0.00023491,-0.0000415
 4,-0.00490460,-0.00047338,0.00227390,-0.00118076,0.00080470,0.00061107
 ,-0.00009858,0.00088912,-0.00005858,0.00029594,0.00028435,0.00030806,0
 .00007110,0.00003767,0.00006280,-0.00000470,-0.00000144,0.00000086,0.,
 0.,0.,0.,0.,0.,0.00000004,0.,0.,-0.00000004,-0.00000011,-0.00000005,-0
 .00003823,0.00000222,-0.00001514,-0.00007277,0.00001701,-0.00004623,-0
 .00006440,0.00017239,-0.00016715,-0.00002255,-0.00016323,-0.00110616,-
 0.00152479,-0.00025685,-0.00215292,0.00131035,0.00041281,-0.00120513,0
 .00978373,0.00324260,0.00054576,-0.00007345,-0.00012335,-0.00008487,-0
 .00377499,-0.00307034,0.00031538,-0.01827411,-0.00491942,-0.02209175,0
 .11702064,-0.06522184,-0.23414472,-0.00286047,-0.04398906,0.02202710,0
 .01863968,-0.01017118,-0.02666084,-0.00025688,0.00103578,-0.00072065,0
 .00100546,0.00116386,-0.00044394,0.00238433,0.00066149,-0.00301899,-0.
 00138832,0.00268446,0.00676883,-0.00044040,0.00065689,-0.00041287,0.00
 068747,0.00065124,-0.00094965,-0.00022224,0.00015932,0.00043359,0.0126
 2693,0.00704853,-0.01868296,0.00074471,0.00293244,0.00188453,0.0002192
 5,-0.00071319,0.00056490,-0.16926873,-0.01189765,0.61290854,0.00002278
 ,-0.00002632,0.00001937,0.00052582,0.00018256,-0.00035134,0.00031285,-
 0.00014166,-0.00004307,-0.00009795,-0.00004249,0.00005685,0.00008976,0
 .00001756,-0.00001163,-0.00003170,-0.00001295,0.00000835,0.00003799,-0
 .00000176,-0.00001820,-0.00005226,0.00010856,0.00021773,-0.00051855,-0
 .00001943,0.00000149,-0.00176434,0.00122795,-0.00088222,-0.00069822,-0
 .00056020,0.00082673,-0.00016095,-0.00007969,-0.00005818,0.00008042,0.
 00014453,0.00000778,0.00001075,-0.00000416,-0.00000413,0.00000632,-0.0
 0000272,0.00000144,-0.00000003,0.,0.,0.00001213,0.00000715,-0.00000016
 ,0.00001261,0.00000500,0.00000355,-0.00006088,-0.00000471,-0.00000076,
 0.00010150,0.00006060,-0.00023997,0.00000467,0.00000750,0.00003492,-0.
 00003993,-0.00000234,-0.00001898,0.00000967,0.00000373,0.00000148,0.,0
 .,0.,0.,0.,0.,0.,0.,0.,0.,0.,0.,0.00000456,0.00000255,0.00000165,-0.00
 015107,0.00021009,0.00078385,-0.00003872,-0.00004751,-0.00002447,-0.00
 004212,0.00007221,-0.00005630,-0.00017641,-0.00005220,0.00006032,0.000
 42689,-0.00001049,-0.00029147,-0.00018967,-0.00004201,-0.00001968,-0.0
 0000049,-0.00000673,0.00000323,0.00000544,0.00000291,0.00000039,0.0000
 1149,0.00000885,-0.00000099,0.00001185,0.00001333,0.00001253,-0.000060
 25,-0.00009885,-0.00000654,-0.00009667,0.00011028,0.00002691,0.0008773
 4,-0.00140075,0.00185138,0.00012982,0.00025336,-0.00043720,0.00028248,
 0.00007763,0.00034340,-0.00005186,-0.00006312,-0.00005690,0.00005398,0
 .00000585,0.00003390,0.00000084,-0.00000356,-0.00000050,0.,0.,0.,0.,0.
 ,0.,-0.00000004,0.,0.,0.00000815,0.00000533,0.00000385,0.00002038,-0.0
 0000864,0.00000740,-0.00003071,-0.00001884,-0.00006105,0.00024398,0.00
 028351,0.00044115,-0.00041661,-0.00002916,-0.00043058,-0.00158164,0.00
 071376,-0.00034235,0.00011031,-0.00000953,-0.00030709,0.00249579,-0.00
 072149,-0.00025039,0.00008681,0.00012584,0.00005208,-0.00097360,-0.000
 36159,-0.00058340,-0.00345418,-0.00747195,-0.00122718,0.00067032,0.019
 66752,-0.00114697,0.00079544,0.00005159,0.00461546,-0.00047510,0.00082
 437,-0.00114484,-0.00031561,0.00037247,-0.00003867,-0.00006213,0.00012
 590,-0.00000645,0.00060960,-0.00003558,-0.00053531,0.00021311,-0.00013
 816,-0.00012302,-0.00013006,0.00029904,0.00025712,-0.00003118,0.000012
 53,0.00008219,0.00002256,-0.00009250,-0.00000561,0.00046735,-0.0008944
 9,0.00022122,0.00060990,-0.00020291,0.00046569,-0.00001681,-0.00006966
 ,-0.00000639,-0.03756733,0.02160193,0.00560902,0.03600379,-0.00002737,
 0.00000095,0.00000851,0.00025329,-0.00002057,-0.00015485,-0.00004297,-
 0.00003161,-0.00003267,-0.00005823,-0.00000077,0.00003011,0.00005674,0
 .00002465,-0.00001422,0.00000630,0.00000089,-0.00000205,0.00002735,-0.
 00000981,0.00000405,-0.00014899,0.00010775,-0.00002246,0.00007742,-0.0
 0009534,0.00006831,-0.00086122,0.00061285,-0.00019324,-0.00002432,0.00
 015250,-0.00014533,0.00000570,0.00002133,-0.00018098,0.00002964,0.0000
 7978,0.00001769,0.00002322,0.00000190,-0.00000473,0.00000836,0.,0.0000
 0196,-0.00000003,0.,0.,-0.00000136,-0.00000084,0.00000003,-0.00000147,
 -0.00000058,-0.00000041,0.00000561,0.00000060,-0.00000010,-0.00010010,
 0.00007000,-0.00002090,0.00003146,-0.00001201,0.00000746,0.00000319,0.
 00000029,0.00000147,-0.00000128,-0.00000050,-0.00000020,0.,0.,0.,0.,0.
 ,0.,0.,0.,0.,0.,0.,0.,0.00000497,0.00000266,0.00000166,-0.00028389,0.0
 0028890,0.00056727,-0.00006199,-0.00008103,-0.00003762,-0.00014763,-0.
 00018119,-0.00014124,-0.00032419,-0.00001810,0.00038700,0.00020190,0.0
 0013977,-0.00035297,-0.00016189,0.00002815,0.00013638,0.00000864,-0.00
 000255,0.00000841,0.00000769,0.00000402,0.00000069,0.00001443,0.000011
 99,0.00000128,0.00001236,0.00001214,0.00001037,-0.00007259,-0.00010521
 ,0.00000514,-0.00015386,-0.00018255,0.00006419,-0.00040621,-0.00044711
 ,0.00088864,0.00011413,0.00073993,0.00059340,0.00000189,0.00009096,0.0
 0014966,-0.00003331,-0.00002446,-0.00002568,0.00004250,0.00002467,0.00
 003681,0.00000626,-0.00000130,0.00000118,0.,0.,0.,0.,0.,0.,-0.00000005
 ,0.,-0.00000001,-0.00000103,-0.00000071,-0.00000050,0.00002536,-0.0000
 0154,0.00001479,-0.00004085,0.00000553,-0.00003081,0.00011692,0.000032
 45,0.00017746,0.00003714,-0.00006083,-0.00023101,-0.00037921,0.0002033
 4,-0.00017132,0.00011275,-0.00000055,-0.00048805,0.00099816,-0.0001833
 8,-0.00023080,0.00007907,0.00009931,0.00003796,0.00204083,0.00047301,0
 .00038546,0.00011872,-0.00227292,-0.00170263,-0.00058471,-0.01896020,0
 .00084614,0.00236804,0.00067846,-0.00222303,-0.00072469,0.00155498,0.0
 0108874,-0.00017308,0.00030871,0.00025796,-0.00012077,0.00014257,0.000
 35639,0.00012076,-0.00022705,0.00022927,-0.00008176,-0.00060408,0.0004
 3050,0.00067196,-0.00086003,-0.00084031,0.00006956,-0.00042281,-0.0002
 4754,-0.00003408,0.00027993,0.00005993,-0.00032657,-0.00007209,0.00071
 409,-0.00018751,-0.00105713,-0.00052245,0.00006967,0.00006059,-0.00044
 213,0.02703302,-0.32811114,0.01963363,-0.03149824,0.35561523,0.0000128
 1,0.00000691,-0.00001535,-0.00009067,-0.00004012,0.00004774,-0.0000328
 8,-0.00000127,-0.00007197,0.00001833,0.00001218,-0.00000396,-0.0000542
 5,-0.00001666,0.00001178,0.00000070,0.00000094,0.00000035,-0.00001932,
 0.00000296,0.00000739,-0.00002264,0.00003510,0.00006388,-0.00010091,0.
 00012352,0.00002465,-0.00019383,-0.00000436,0.00023096,0.00000813,-0.0
 0006282,0.00018098,0.00010162,0.00005729,0.00000119,-0.00003653,-0.000
 06953,-0.00000726,-0.00000024,0.00000309,0.00000124,-0.00000443,0.0000
 0136,-0.00000043,0.00000002,0.,0.,-0.00000135,-0.00000077,0.,-0.000001
 38,-0.00000054,-0.00000038,-0.00001506,-0.00000116,0.00000573,0.000039
 01,-0.00000577,-0.00006695,0.00001741,0.00000117,0.00003415,-0.0000073
 2,-0.00000033,0.00000009,0.00000545,0.00000210,0.00000085,0.,0.,0.,0.,
 0.,0.,0.,0.,0.,0.,0.,0.,-0.00000182,-0.00000108,-0.00000071,-0.0000138
 3,-0.00023463,-0.00024779,-0.00001838,-0.00001138,0.00000844,-0.000031
 59,0.00002864,-0.00001536,-0.00007743,-0.00004428,0.00028431,0.0003563
 1,0.00023687,-0.00029652,-0.00027892,-0.00013437,-0.00014470,-0.000004
 86,-0.00000877,0.00000085,0.00000549,0.00000303,0.00000028,0.00000855,
 0.00001000,-0.00000484,-0.00000612,-0.00000918,-0.00000451,-0.00000158
 ,0.00000840,0.00001811,0.00002800,0.00005954,-0.00000153,0.00080144,-0
 .00017648,0.00050202,0.00037917,0.00039908,0.00041296,0.00032394,0.000
 11770,0.00025732,-0.00005975,-0.00008037,-0.00005212,0.00006319,0.0000
 1788,0.00004567,0.00000224,-0.00000411,0.00000034,0.,0.,0.,0.,0.,0.,-0
 .00000004,0.,0.,0.00000461,0.00000299,0.00000217,0.00002318,-0.0000058
 4,0.00001048,-0.00001672,-0.00001919,-0.00005186,0.00014854,0.00019540
 ,0.00023733,-0.00014488,-0.00018101,-0.00018014,-0.00065958,-0.0000182
 8,-0.00039891,-0.00014137,0.00005888,0.00030569,0.00027626,-0.00012810
 ,-0.00056492,0.00009029,0.00013746,0.00004890,-0.00015467,0.00044684,0
 .00048696,-0.00223508,-0.00177241,-0.00115336,-0.00160202,-0.02258030,
 0.00458574,0.00490648,0.00025814,-0.00311982,-0.00138492,-0.00116413,-
 0.00052354,0.00074286,-0.00045770,-0.00069869,-0.00047033,0.00007022,0
 .00036557,0.00004981,-0.00028062,0.00082387,0.00021245,0.00000264,0.00
 013341,0.00024996,-0.00034396,-0.00013885,0.00004925,-0.00023555,-0.00
 010512,0.00002912,0.00008380,-0.00006152,0.00029343,-0.00031849,0.0005
 6520,0.00010289,-0.00126683,0.00044002,-0.00000645,0.00044265,0.000062
 51,0.00754763,0.01993839,-0.05512542,-0.00835979,-0.01883336,0.0493159
 0,-0.00009770,-0.00000381,0.00002396,0.00027745,-0.00003430,-0.0000913
 3,0.00001627,0.00062542,0.00015723,-0.00021297,-0.00020347,0.00006637,
 0.00015836,0.00011730,-0.00002935,-0.00006865,-0.00000282,-0.00000275,
 0.00006779,-0.00004509,0.00004039,-0.00027782,0.00020877,-0.00020403,0
 .00056391,-0.00068612,0.00052809,0.00090783,0.00002045,0.00000406,-0.0
 0139481,-0.00106912,0.00041244,0.00019412,0.00026732,-0.00004515,-0.00
 010129,-0.00010416,-0.00003620,0.00008022,0.00007023,0.00001575,0.0000
 4836,0.00000591,-0.00000002,0.00001268,0.00000637,0.00000521,0.0000335
 3,0.00000583,0.00001214,-0.00000602,0.00000217,-0.00000581,-0.00001638
 ,-0.00000245,-0.00000852,-0.00022280,0.00015256,-0.00006190,0.00008522
 ,-0.00000999,0.00004910,0.00000939,0.00000331,0.00001749,-0.00000003,-
 0.00000001,-0.00000003,0.,0.,0.,0.,0.,0.,0.,0.,0.,-0.00000329,-0.00000
 001,-0.00000072,-0.00002144,-0.00000846,-0.00000524,0.00053474,-0.0001
 4787,0.00060209,0.00008501,0.00007927,0.00014763,-0.00009407,-0.000341
 80,-0.00003420,0.00037752,0.00018943,0.00051781,0.00038201,-0.00003561
 ,-0.00103060,-0.00011779,-0.00000729,0.00007579,-0.00001784,-0.0000093
 3,-0.00000695,0.00001260,0.00000233,0.00001222,0.00000092,0.00001772,-
 0.00002605,0.00006889,0.00005116,0.00005506,-0.00033702,-0.00000911,0.
 00006270,0.00039767,-0.00052763,-0.00017808,-0.00104358,-0.00172163,0.
 00175084,0.00037081,-0.00058030,-0.00044222,0.00013821,-0.00008728,0.0
 0025041,-0.00006140,-0.00003989,-0.00007456,0.00000371,0.00000927,0.00
 000517,0.00001377,-0.00000124,0.00000680,-0.00000680,-0.00000003,-0.00
 000389,0.,0.,0.,-0.00000004,0.,0.,0.,0.,0.,0.00001359,-0.00000601,0.00
 000338,0.00004644,0.00000477,0.00004507,0.00003983,-0.00001912,0.00012
 852,0.00010138,0.00008965,-0.00011283,-0.00049765,0.00092001,0.0004659
 3,0.00033991,0.00068966,-0.00084785,0.00074679,0.00018720,-0.00152647,
 -0.00001092,0.00003562,-0.00001483,-0.00345258,0.00345235,-0.00091088,
 -0.01707207,-0.00249700,-0.01143664,-0.00575016,-0.00084897,0.01963427
 ,-0.00118214,-0.00471848,0.00009024,0.00014732,0.00256381,0.00372726,0
 .00010897,-0.00032095,0.00017201,0.00034718,-0.00037350,0.00043434,0.0
 0035365,0.00018475,-0.00003513,0.00010239,0.00038045,0.00036155,0.0000
 8490,0.00019878,0.00003018,-0.00010819,0.00021198,0.00039597,-0.000168
 88,0.00032336,0.00004989,0.00225019,0.00140697,0.00073991,0.00158397,-
 0.00076053,-0.00013768,0.00061134,0.00018367,0.00010020,-0.01856604,-0
 .01215348,0.03335722,0.00389765,0.00226045,-0.00064762,0.03529386,0.00
 002055,-0.00000718,0.00001021,-0.00015298,0.00003767,0.00000161,-0.000
 15602,-0.00002484,0.00000553,-0.00001482,0.00001133,-0.00001079,-0.000
 02662,-0.00001603,0.00001519,-0.00000055,0.00000810,-0.00000268,-0.000
 02094,0.00001767,-0.00002092,0.00005519,-0.00003164,0.00007872,-0.0000
 0732,-0.00008102,-0.00019179,0.00084758,-0.00028435,0.00042109,-0.0000
 1259,-0.00034398,0.00011345,0.00001541,0.00002522,0.00002248,-0.000075
 22,-0.00007742,-0.00002340,0.00002153,0.00001317,0.00000428,0.00001865
 ,0.00000451,0.00000181,-0.00000048,-0.00000025,-0.00000020,-0.00000285
 ,-0.00000116,-0.00000044,-0.00000134,-0.00000071,-0.00000022,0.0000072
 7,0.00000094,0.00000416,0.00003272,-0.00001147,-0.00001808,-0.00004602
 ,0.00000686,-0.00002428,-0.00000331,-0.00000146,-0.00000749,0.00000001
 ,0.,0.00000001,0.,0.,0.,0.,0.,0.,0.,0.,0.,-0.00000349,-0.00000001,-0.0
 0000076,-0.00001681,-0.00000505,-0.00000278,0.00007808,-0.00030235,0.0
 0069004,0.00009207,0.00009416,0.00015013,-0.00002810,-0.00043414,-0.00
 010496,0.00069811,0.00015395,0.00056446,0.00018831,-0.00029014,-0.0008
 4277,-0.00012829,-0.00003384,-0.00006090,-0.00001388,-0.00000527,-0.00
 000584,0.00001186,0.00000158,0.00001297,0.00000396,0.00002143,-0.00002
 244,0.00006813,0.00004549,0.00004555,-0.00034298,-0.00000070,0.0000622
 3,0.00019748,-0.00042690,-0.00015170,-0.00032518,-0.00046038,0.0001930
 5,0.00007420,-0.00000815,0.00022377,0.00004245,-0.00007179,0.00008452,
 0.00001930,-0.00001245,0.00004456,-0.00000876,0.00000040,-0.00000747,0
 .00001458,0.00000077,0.00000720,-0.00000722,-0.00000003,-0.00000413,0.
 ,0.,0.,-0.00000003,0.,0.,0.,0.,0.,0.00000655,0.00000004,0.00000442,-0.
 00002174,-0.00000671,-0.00002454,-0.00004408,0.00005507,-0.00006892,0.
 00008657,-0.00013841,0.00015670,0.00020771,-0.00018496,-0.00021102,0.0
 0002717,0.00061444,-0.00072455,0.00022336,0.00006963,-0.00057179,-0.00
 001957,0.00001713,-0.00001147,-0.00308310,0.00044056,-0.00194868,-0.00
 407483,0.00137911,-0.00167355,-0.00239647,0.01532239,-0.01145347,-0.00
 325545,-0.00169764,0.00396582,0.00184713,-0.00053611,0.00020453,0.0003
 5971,0.00019280,-0.00069510,-0.00013164,0.00024174,-0.00040999,0.00072
 254,0.00032591,-0.00027038,-0.00011421,0.00062929,-0.00003439,-0.00016
 076,-0.00012647,0.00022345,-0.00008646,0.00001199,-0.00001620,0.000068
 44,-0.00012499,-0.00001061,0.00260049,0.00066681,-0.00293612,0.0007571
 8,-0.00493012,-0.00058170,0.00020287,-0.00105507,0.00126408,-0.0048519
 7,-0.09962906,0.09541431,-0.00242961,-0.00782067,0.02574858,0.01244853
 ,0.09877276,-0.00009880,0.00003396,0.00000238,0.00000284,-0.00003304,-
 0.00008628,0.00015561,-0.00009570,0.00005038,-0.00001755,0.00001729,0.
 00003881,-0.00000998,-0.00000857,-0.00000335,0.00002720,-0.00000239,-0
 .00000033,-0.00000152,-0.00000535,0.00001204,-0.00013109,0.00008495,-0
 .00001064,-0.00009490,-0.00010416,0.00010776,-0.00105473,0.00081777,0.
 00006758,0.00075302,0.00038708,-0.00081488,0.00017607,0.00011549,-0.00
 018274,0.00000735,0.00001804,0.00000101,-0.00001528,-0.00001236,-0.000
 00210,-0.00000905,0.00000002,0.00000061,-0.00000287,-0.00000144,-0.000
 00118,-0.00000624,-0.00000052,-0.00000277,0.00000272,0.00000005,0.0000
 0170,0.00000081,-0.00000018,-0.00000201,-0.00016422,0.00010756,-0.0000
 8407,0.00005478,-0.00000420,0.00003067,-0.00000582,0.00000042,0.000000
 37,0.,0.,0.,0.,0.,0.,0.,0.,0.,0.,0.,0.,-0.00000097,0.,-0.00000021,-0.0
 0000117,0.00000085,0.00000079,-0.00086405,-0.00036003,0.00059367,-0.00
 000317,-0.00001119,0.00007168,-0.00009687,-0.00047912,-0.00036861,0.00
 023029,0.00041214,0.00136144,0.00054185,0.00002186,-0.00110754,-0.0001
 7027,0.00006093,0.00016270,-0.00002596,-0.00001308,-0.00001269,0.00000
 375,0.00000176,0.00000198,0.00002648,0.00002839,-0.00001038,-0.0000060
 6,-0.00000826,0.00001527,-0.00005030,0.00001232,0.00000501,-0.00018604
 ,-0.00054371,0.00012264,0.00066994,-0.00047109,0.00085913,0.00037176,0
 .00008662,0.00065179,0.00011395,-0.00013525,0.00008372,-0.00005840,-0.
 00003656,-0.00003804,0.00000298,0.00001129,0.00000426,0.00002049,-0.00
 000189,0.00000980,-0.00000200,0.,-0.00000114,0.,0.,0.,-0.00000006,0.,-
 0.00000001,0.,0.,0.,0.00002516,-0.00000722,0.00000930,0.00003830,0.000
 00012,0.00003291,0.00013518,-0.00007382,0.00021522,-0.00003789,0.00019
 777,-0.00009396,-0.00067104,0.00066713,-0.00025178,0.00100309,0.000355
 26,-0.00055638,0.00328427,-0.00103470,0.00015567,-0.00001453,0.0000290
 2,-0.00003566,-0.00255646,0.00224370,-0.00092338,-0.00660702,-0.004702
 19,-0.00302802,0.00196785,0.00902544,-0.01618227,0.00083326,0.00007526
 ,-0.00143370,0.00297692,-0.00202923,-0.00102622,-0.00052358,-0.0004439
 9,0.00108042,0.00003076,0.00026674,-0.00054469,0.00039845,0.00051779,-
 0.00070963,-0.00023686,-0.00020397,0.00022678,0.00014419,-0.00041338,0
 .00003841,-0.00011099,-0.00003238,0.00074747,0.00005050,-0.00042218,-0
 .00010597,-0.00084788,0.00080761,0.00188004,-0.00013943,0.00059089,0.0
 0044674,0.00046630,0.00052431,0.00044024,0.04586463,0.10069410,-0.2855
 1465,0.00103940,0.00006960,0.00353147,-0.04659712,-0.10659237,0.300073
 42\\-0.00000007,-0.00000017,0.00000023,0.00000013,0.00000030,-0.000000
 03,-0.00000004,-0.00000015,-0.00000008,0.00000006,0.00000004,-0.000000
 34,-0.00000011,-0.00000002,0.00000023,0.00000014,0.00000012,-0.0000000
 2,-0.00000027,0.00000003,-0.00000012,0.00000033,-0.00000007,0.00000004
 ,-0.00000001,-0.00000012,-0.00000008,-0.00000030,0.00000006,0.00000035
 ,-0.00000006,0.00000007,0.00000064,0.00000002,-0.00000009,-0.00000008,
 0.00000015,-0.00000011,0.00000003,-0.00000009,-0.00000008,-0.00000007,
 0.00000002,0.00000004,-0.00000004,0.00000008,0.00000003,0.00000002,-0.
 00000007,-0.00000003,-0.00000007,0.,0.00000001,-0.00000008,0.00000012,
 -0.00000002,0.,-0.00000014,0.00000012,-0.00000005,0.00000010,-0.000000
 12,0.00000007,0.,-0.00000009,0.00000005,-0.00000001,-0.00000007,-0.000
 00001,0.00000012,0.,-0.00000004,0.,0.00000003,0.00000002,-0.00000002,-
 0.00000004,0.00000003,0.00000009,0.00000010,-0.00000006,0.00000003,0.0
 0000005,0.00000009,-0.00000025,-0.00000002,0.00000052,0.00000030,0.000
 00013,0.00000013,-0.00000041,0.00000005,-0.00000044,0.00000074,0.00000
 011,0.00000072,0.00000092,-0.00000096,-0.00000135,-0.00000006,-0.00000
 029,0.00000029,0.00000016,-0.00000016,0.00000012,-0.00000020,0.0000000
 9,-0.00000007,0.00000012,-0.00000008,0.,0.00000006,-0.00000004,0.00000
 009,-0.00000004,0.00000028,-0.00000009,-0.00000024,0.00000013,0.000000
 03,0.00000092,0.00000106,0.00000090,0.00000018,-0.00000007,0.00000012,
 -0.00000151,0.00000047,-0.00000024,0.00000082,0.00000008,0.00000079,-0
 .00000035,-0.00000012,-0.00000010,0.00000003,0.00000023,-0.00000009,0.
 ,0.00000005,0.00000008,-0.00000005,-0.00000010,-0.00000008,0.00000004,
 -0.00000002,0.00000008,-0.00000016,0.00000007,0.00000009,0.00000022,-0
 .00000008,-0.00000002,-0.00000008,0.00000010,0.00000010,0.00000073,-0.
 00000076,-0.00000054,0.00000010,0.00000020,0.00000002,-0.00000029,-0.0
 0000098,-0.00000013,-0.00000060,-0.00000048,-0.00000035,-0.00000089,-0
 .00000025,0.00000077,0.00000062,0.00000085,0.00000011,-0.00000179,-0.0
 0000038,-0.00000180,0.00000199,0.00000191,0.00000057,0.00000097,-0.000
 00031,0.00000033,0.00000012,0.00000011,-0.00000054,-0.00000138,-0.0000
 0020,0.00000015,-0.00000044,0.00000009,-0.00000034,0.00000021,-0.00000
 033,-0.00000018,0.00000050,0.00000037,0.00000027,-0.00000063,0.0000003
 5,0.00000040,0.00000031,0.00000002,0.00000008,-0.00000118,0.00000023,0
 .00000066,-0.00000011,0.,-0.00000018,0.00000041,-0.00000050,-0.0000001
 1,0.00000018,0.00000004,-0.00000010,0.00000023,0.00000019,0.00000050,-
 0.00000111,-0.00000115,-0.00000171,0.00000049,-0.00000046,-0.00000015,
 0.00000020,0.00000068,0.00000007\\\@


 WE SHOULD BE CAREFUL TO GET OUT OF AN EXPERIENCE ONLY THE WISDOM
 THAT IS IN IT -- AND STOP THERE;
 LEST WE BE LIKE THE CAT THAT SITS DOWN ON A HOT STOVE-LID.
 SHE WILL NEVER SIT DOWN ON A HOT STOVE LID AGAIN;
 BUT ALSO SHE WILL NEVER SIT DOWN ON A COLD ONE ANY MORE.

                                                     -- MARK TWAIN
 Job cpu time:       0 days  0 hours  0 minutes  0.7 seconds.
 Elapsed time:       0 days  0 hours  0 minutes 14.4 seconds.
 File lengths (MBytes):  RWF=     22 Int=      0 D2E=      0 Chk=      3 Scr=      2
 Normal termination of Gaussian 16 at Tue May 27 10:37:19 2025.
