 Entering Gaussian System, Link 0=/mlatom/software/Gaussian/g16-avx2/g16
 Input=gaussian.com
 Output=gaussian.log
 Initial command:
 /mlatom/software/Gaussian/g16-avx2/l1.exe "/mlatom/home/huangyh/projects/delta_learning/paper/revision1/Starting_from_ub3lyp_d4/c60/ADL/ts1/Gau-135411.inp" -scrdir="/mlatom/home/huangyh/projects/delta_learning/paper/revision1/Starting_from_ub3lyp_d4/c60/ADL/ts1/"
 Entering Link 1 = /mlatom/software/Gaussian/g16-avx2/l1.exe PID=    135412.
  
 Copyright (c) 1988,1990,1992,1993,1995,1998,2003,2009,2016,
            Gaussian, Inc.  All Rights Reserved.
  
 This is part of the Gaussian(R) 16 program.  It is based on
 the Gaussian(R) 09 system (copyright 2009, Gaussian, Inc.),
 the Gaussian(R) 03 system (copyright 2003, Gaussian, Inc.),
 the Gaussian(R) 98 system (copyright 1998, Gaussian, Inc.),
 the Gaussian(R) 94 system (copyright 1995, Gaussian, Inc.),
 the Gaussian 92(TM) system (copyright 1992, Gaussian, Inc.),
 the Gaussian 90(TM) system (copyright 1990, Gaussian, Inc.),
 the Gaussian 88(TM) system (copyright 1988, Gaussian, Inc.),
 the Gaussian 86(TM) system (copyright 1986, Carnegie Mellon
 University), and the Gaussian 82(TM) system (copyright 1983,
 Carnegie Mellon University). Gaussian is a federally registered
 trademark of Gaussian, Inc.
  
 This software contains proprietary and confidential information,
 including trade secrets, belonging to Gaussian, Inc.
  
 This software is provided under written license and may be
 used, copied, transmitted, or stored only in accord with that
 written license.
  
 The following legend is applicable only to US Government
 contracts under FAR:
  
                    RESTRICTED RIGHTS LEGEND
  
 Use, reproduction and disclosure by the US Government is
 subject to restrictions as set forth in subparagraphs (a)
 and (c) of the Commercial Computer Software - Restricted
 Rights clause in FAR 52.227-19.
  
 Gaussian, Inc.
 340 Quinnipiac St., Bldg. 40, Wallingford CT 06492
  
  
 ---------------------------------------------------------------
 Warning -- This program may not be used in any manner that
 competes with the business of Gaussian, Inc. or will provide
 assistance to any competitor of Gaussian, Inc.  The licensee
 of this program is prohibited from giving any competitor of
 Gaussian, Inc. access to this program.  By using this program,
 the user acknowledges that Gaussian, Inc. is engaged in the
 business of creating and licensing software in the field of
 computational chemistry and represents and warrants to the
 licensee that it is not a competitor of Gaussian, Inc. and that
 it will not use this program in any manner prohibited above.
 ---------------------------------------------------------------
  

 Cite this work as:
 Gaussian 16, Revision A.03,
 M. J. Frisch, G. W. Trucks, H. B. Schlegel, G. E. Scuseria, 
 M. A. Robb, J. R. Cheeseman, G. Scalmani, V. Barone, 
 G. A. Petersson, H. Nakatsuji, X. Li, M. Caricato, A. V. Marenich, 
 J. Bloino, B. G. Janesko, R. Gomperts, B. Mennucci, H. P. Hratchian, 
 J. V. Ortiz, A. F. Izmaylov, J. L. Sonnenberg, D. Williams-Young, 
 F. Ding, F. Lipparini, F. Egidi, J. Goings, B. Peng, A. Petrone, 
 T. Henderson, D. Ranasinghe, V. G. Zakrzewski, J. Gao, N. Rega, 
 G. Zheng, W. Liang, M. Hada, M. Ehara, K. Toyota, R. Fukuda, 
 J. Hasegawa, M. Ishida, T. Nakajima, Y. Honda, O. Kitao, H. Nakai, 
 T. Vreven, K. Throssell, J. A. Montgomery, Jr., J. E. Peralta, 
 F. Ogliaro, M. J. Bearpark, J. J. Heyd, E. N. Brothers, K. N. Kudin, 
 V. N. Staroverov, T. A. Keith, R. Kobayashi, J. Normand, 
 K. Raghavachari, A. P. Rendell, J. C. Burant, S. S. Iyengar, 
 J. Tomasi, M. Cossi, J. M. Millam, M. Klene, C. Adamo, R. Cammi, 
 J. W. Ochterski, R. L. Martin, K. Morokuma, O. Farkas, 
 J. B. Foresman, and D. J. Fox, Gaussian, Inc., Wallingford CT, 2016.
 
 ******************************************
 Gaussian 16:  ES64L-G16RevA.03 25-Dec-2016
                27-May-2025 
 ******************************************
 %nproc=1
 Will use up to    1 processors via shared memory.
 ----------------------------------------------------------------------
 #p Freq external='/mlatom/software/miniconda3/bin/python /mlatom/softw
 are/mlatom_xacs/mlatom/interfaces/gaussian_interface.py model_predict_
 kwargs'
 ----------------------------------------------------------------------
 1/10=4,18=10,30=1,38=1/1,3;
 2/12=2,17=6,18=5,40=1/2;
 3/11=9,25=1,30=1,41=9900000,43=2,71=2,140=1/1;
 4/20=17,22=2,24=3,113=1,114=1/2;
 6/7=2,8=2,9=2,10=2/1;
 7/8=1,25=1,44=-1/16;
 1/10=4,18=10,30=1/3;
 99//99;
 Leave Link    1 at Tue May 27 10:41:40 2025, MaxMem=           0 cpu:               0.0 elap:               0.3
 (Enter /mlatom/software/Gaussian/g16-avx2/l101.exe)
 ------------------------------------
 156c8fa9-9f52-497e-8382-ec2d2ddc5aa0
 ------------------------------------
 Symbolic Z-matrix:
 Charge =  0 Multiplicity = 1
 C                     1.98577  -2.29996  -2.36516 
 C                     0.56995  -2.30511  -2.6741 
 C                    -0.0263   -1.17827  -3.23817 
 C                     0.77369  -0.00386  -3.52091 
 C                     2.13505   0.00052  -3.22831 
 C                     2.75306  -1.17019  -2.63647 
 C                     2.17583  -3.0234   -1.12236 
 C                     0.87632  -3.47396  -0.66453 
 C                    -0.11466  -3.02648  -1.6245 
 C                    -1.36318  -2.5906   -1.1853 
 C                    -1.32938  -0.73883  -2.78735 
 C                    -0.03286   1.16647  -3.24077 
 C                     0.55664   2.29804  -2.67903 
 C                     1.97246   2.30213  -2.37029 
 C                     2.74625   1.17621  -2.63914 
 C                     3.738     0.73226  -1.68017 
 C                     3.74221  -0.71828  -1.67854 
 C                     3.92455  -1.41258  -0.48527 
 C                     3.12546  -2.58851  -0.2015 
 C                     0.57897  -3.47398   0.69521 
 C                     1.56736  -3.02249   1.65468 
 C                     2.81495  -2.58787   1.21523 
 C                     3.422    -1.41146   1.80637 
 C                     4.10829  -0.68544   0.75565 
 C                     4.10418   0.70701   0.7541 
 C                     3.91624   1.43029  -0.48844 
 C                     3.11026   2.60216  -0.20724 
 C                     2.15823   3.02951  -1.12909 
 C                    -1.33311   0.72042  -2.78888 
 C                    -0.74044   3.01903   1.14487 
 C                    -1.68594   2.57461   0.22375 
 C                    -2.48837   1.40824   0.50396 
 C                    -2.31935   0.72302   1.69639 
 C                    -1.32643   1.16902   2.65021 
 C                     0.86031   2.30406   2.69752 
 C                     1.54918   3.03076   1.6478 
 C                     0.55814   3.47422   0.68739 
 C                     0.85603   3.47331  -0.67218 
 C                    -0.13214   3.01755  -1.63086 
 C                    -1.37734   2.57425  -1.18967 
 C                    -2.47603  -1.42489   0.50711 
 C                    -2.31498  -0.7369    1.69852 
 C                    -1.31931  -1.17562   2.65365 
 C                    -0.71059  -0.00074   3.24365 
 C                     0.64856   0.0036    3.54725 
 C                     1.45044   1.17878   3.26672 
 C                     2.79951   2.60276   1.20944 
 C                     3.41353   1.4313    1.80317 
 C                     2.75249   0.73429   2.81141 
 C                     2.75686  -0.71616   2.81309 
 C                     1.45753  -1.16744   3.26958 
 C                     0.87426  -2.29762   2.70299 
 C                    -0.54084  -2.30273   2.39096 
 C                    -0.72194  -3.02573   1.15189 
 C                    -1.66951  -2.58863   0.22897 
 C                    -1.99017   1.4068   -1.77908 
 C                    -1.98361  -1.42745  -1.77688 
 C                    -0.55481   2.3       2.38522 
 C                    -2.78347   0.70937  -0.75692 
 C                    -2.77877  -0.73181  -0.75401 
 C                    -5.60508  -0.72004  -0.19413 
 C                    -5.59417   0.71063  -0.20698 
 C                    -6.14746  -1.47669   0.99751 
 H                    -6.98444  -2.12122   0.69425 
 H                    -5.37198  -2.11931   1.43556 
 H                    -6.51477  -0.78708   1.76554 
 C                    -6.10834   1.51764   0.96763 
 H                    -7.19699   1.42288   1.07709 
 H                    -5.65252   1.22148   1.91859 
 H                    -5.88952   2.5774    0.82353 
 C                    -4.90076   1.37608  -1.20253 
 H                    -4.73516   0.94093  -2.17932 
 H                    -4.8052    2.45852  -1.17551 
 C                    -4.90975  -1.41481  -1.16638 
 H                    -4.83389  -2.49805  -1.10498 
 H                    -4.73642  -1.01027  -2.15522 
 
 ITRead=  0  0  0  0  0  0  0  0  0  0  0  0  0  0  0  0  0  0  0  0
 ITRead=  0  0  0  0  0  0  0  0  0  0  0  0  0  0  0  0  0  0  0  0
 ITRead=  0  0  0  0  0  0  0  0  0  0  0  0  0  0  0  0  0  0  0  0
 ITRead=  0  0  0  0  0  0  0  0  0  0  0  0  0  0  0  0
 MicOpt= -1 -1 -1 -1 -1 -1 -1 -1 -1 -1 -1 -1 -1 -1 -1 -1 -1 -1 -1 -1
 MicOpt= -1 -1 -1 -1 -1 -1 -1 -1 -1 -1 -1 -1 -1 -1 -1 -1 -1 -1 -1 -1
 MicOpt= -1 -1 -1 -1 -1 -1 -1 -1 -1 -1 -1 -1 -1 -1 -1 -1 -1 -1 -1 -1
 MicOpt= -1 -1 -1 -1 -1 -1 -1 -1 -1 -1 -1 -1 -1 -1 -1 -1
 NAtoms=     76 NQM=       76 NQMF=       0 NMMI=      0 NMMIF=      0
                NMic=       0 NMicF=      0.
                    Isotopes and Nuclear Properties:
 (Nuclear quadrupole moments (NQMom) in fm**2, nuclear magnetic moments (NMagM)
  in nuclear magnetons)

  Atom         1           2           3           4           5           6           7           8           9          10
 IAtWgt=          12          12          12          12          12          12          12          12          12          12
 AtmWgt=  12.0000000  12.0000000  12.0000000  12.0000000  12.0000000  12.0000000  12.0000000  12.0000000  12.0000000  12.0000000
 NucSpn=           0           0           0           0           0           0           0           0           0           0
 AtZEff=  -0.0000000  -0.0000000  -0.0000000  -0.0000000  -0.0000000  -0.0000000  -0.0000000  -0.0000000  -0.0000000  -0.0000000
 NQMom=    0.0000000   0.0000000   0.0000000   0.0000000   0.0000000   0.0000000   0.0000000   0.0000000   0.0000000   0.0000000
 NMagM=    0.0000000   0.0000000   0.0000000   0.0000000   0.0000000   0.0000000   0.0000000   0.0000000   0.0000000   0.0000000
 AtZNuc=   6.0000000   6.0000000   6.0000000   6.0000000   6.0000000   6.0000000   6.0000000   6.0000000   6.0000000   6.0000000

  Atom        11          12          13          14          15          16          17          18          19          20
 IAtWgt=          12          12          12          12          12          12          12          12          12          12
 AtmWgt=  12.0000000  12.0000000  12.0000000  12.0000000  12.0000000  12.0000000  12.0000000  12.0000000  12.0000000  12.0000000
 NucSpn=           0           0           0           0           0           0           0           0           0           0
 AtZEff=  -0.0000000  -0.0000000  -0.0000000  -0.0000000  -0.0000000  -0.0000000  -0.0000000  -0.0000000  -0.0000000  -0.0000000
 NQMom=    0.0000000   0.0000000   0.0000000   0.0000000   0.0000000   0.0000000   0.0000000   0.0000000   0.0000000   0.0000000
 NMagM=    0.0000000   0.0000000   0.0000000   0.0000000   0.0000000   0.0000000   0.0000000   0.0000000   0.0000000   0.0000000
 AtZNuc=   6.0000000   6.0000000   6.0000000   6.0000000   6.0000000   6.0000000   6.0000000   6.0000000   6.0000000   6.0000000

  Atom        21          22          23          24          25          26          27          28          29          30
 IAtWgt=          12          12          12          12          12          12          12          12          12          12
 AtmWgt=  12.0000000  12.0000000  12.0000000  12.0000000  12.0000000  12.0000000  12.0000000  12.0000000  12.0000000  12.0000000
 NucSpn=           0           0           0           0           0           0           0           0           0           0
 AtZEff=  -0.0000000  -0.0000000  -0.0000000  -0.0000000  -0.0000000  -0.0000000  -0.0000000  -0.0000000  -0.0000000  -0.0000000
 NQMom=    0.0000000   0.0000000   0.0000000   0.0000000   0.0000000   0.0000000   0.0000000   0.0000000   0.0000000   0.0000000
 NMagM=    0.0000000   0.0000000   0.0000000   0.0000000   0.0000000   0.0000000   0.0000000   0.0000000   0.0000000   0.0000000
 AtZNuc=   6.0000000   6.0000000   6.0000000   6.0000000   6.0000000   6.0000000   6.0000000   6.0000000   6.0000000   6.0000000

  Atom        31          32          33          34          35          36          37          38          39          40
 IAtWgt=          12          12          12          12          12          12          12          12          12          12
 AtmWgt=  12.0000000  12.0000000  12.0000000  12.0000000  12.0000000  12.0000000  12.0000000  12.0000000  12.0000000  12.0000000
 NucSpn=           0           0           0           0           0           0           0           0           0           0
 AtZEff=  -0.0000000  -0.0000000  -0.0000000  -0.0000000  -0.0000000  -0.0000000  -0.0000000  -0.0000000  -0.0000000  -0.0000000
 NQMom=    0.0000000   0.0000000   0.0000000   0.0000000   0.0000000   0.0000000   0.0000000   0.0000000   0.0000000   0.0000000
 NMagM=    0.0000000   0.0000000   0.0000000   0.0000000   0.0000000   0.0000000   0.0000000   0.0000000   0.0000000   0.0000000
 AtZNuc=   6.0000000   6.0000000   6.0000000   6.0000000   6.0000000   6.0000000   6.0000000   6.0000000   6.0000000   6.0000000

  Atom        41          42          43          44          45          46          47          48          49          50
 IAtWgt=          12          12          12          12          12          12          12          12          12          12
 AtmWgt=  12.0000000  12.0000000  12.0000000  12.0000000  12.0000000  12.0000000  12.0000000  12.0000000  12.0000000  12.0000000
 NucSpn=           0           0           0           0           0           0           0           0           0           0
 AtZEff=  -0.0000000  -0.0000000  -0.0000000  -0.0000000  -0.0000000  -0.0000000  -0.0000000  -0.0000000  -0.0000000  -0.0000000
 NQMom=    0.0000000   0.0000000   0.0000000   0.0000000   0.0000000   0.0000000   0.0000000   0.0000000   0.0000000   0.0000000
 NMagM=    0.0000000   0.0000000   0.0000000   0.0000000   0.0000000   0.0000000   0.0000000   0.0000000   0.0000000   0.0000000
 AtZNuc=   6.0000000   6.0000000   6.0000000   6.0000000   6.0000000   6.0000000   6.0000000   6.0000000   6.0000000   6.0000000

  Atom        51          52          53          54          55          56          57          58          59          60
 IAtWgt=          12          12          12          12          12          12          12          12          12          12
 AtmWgt=  12.0000000  12.0000000  12.0000000  12.0000000  12.0000000  12.0000000  12.0000000  12.0000000  12.0000000  12.0000000
 NucSpn=           0           0           0           0           0           0           0           0           0           0
 AtZEff=  -0.0000000  -0.0000000  -0.0000000  -0.0000000  -0.0000000  -0.0000000  -0.0000000  -0.0000000  -0.0000000  -0.0000000
 NQMom=    0.0000000   0.0000000   0.0000000   0.0000000   0.0000000   0.0000000   0.0000000   0.0000000   0.0000000   0.0000000
 NMagM=    0.0000000   0.0000000   0.0000000   0.0000000   0.0000000   0.0000000   0.0000000   0.0000000   0.0000000   0.0000000
 AtZNuc=   6.0000000   6.0000000   6.0000000   6.0000000   6.0000000   6.0000000   6.0000000   6.0000000   6.0000000   6.0000000

  Atom        61          62          63          64          65          66          67          68          69          70
 IAtWgt=          12          12          12           1           1           1          12           1           1           1
 AtmWgt=  12.0000000  12.0000000  12.0000000   1.0078250   1.0078250   1.0078250  12.0000000   1.0078250   1.0078250   1.0078250
 NucSpn=           0           0           0           1           1           1           0           1           1           1
 AtZEff=  -0.0000000  -0.0000000  -0.0000000  -0.0000000  -0.0000000  -0.0000000  -0.0000000  -0.0000000  -0.0000000  -0.0000000
 NQMom=    0.0000000   0.0000000   0.0000000   0.0000000   0.0000000   0.0000000   0.0000000   0.0000000   0.0000000   0.0000000
 NMagM=    0.0000000   0.0000000   0.0000000   2.7928460   2.7928460   2.7928460   0.0000000   2.7928460   2.7928460   2.7928460
 AtZNuc=   6.0000000   6.0000000   6.0000000   1.0000000   1.0000000   1.0000000   6.0000000   1.0000000   1.0000000   1.0000000

  Atom        71          72          73          74          75          76
 IAtWgt=          12           1           1          12           1           1
 AtmWgt=  12.0000000   1.0078250   1.0078250  12.0000000   1.0078250   1.0078250
 NucSpn=           0           1           1           0           1           1
 AtZEff=  -0.0000000  -0.0000000  -0.0000000  -0.0000000  -0.0000000  -0.0000000
 NQMom=    0.0000000   0.0000000   0.0000000   0.0000000   0.0000000   0.0000000
 NMagM=    0.0000000   2.7928460   2.7928460   0.0000000   2.7928460   2.7928460
 AtZNuc=   6.0000000   1.0000000   1.0000000   6.0000000   1.0000000   1.0000000
 Leave Link  101 at Tue May 27 10:41:41 2025, MaxMem=   104857600 cpu:               0.1 elap:               0.2
 (Enter /mlatom/software/Gaussian/g16-avx2/l103.exe)

 GradGradGradGradGradGradGradGradGradGradGradGradGradGradGradGradGradGrad
 Berny optimization.
 Initialization pass.
 Trust Radius=3.00D-01 FncErr=1.00D-07 GrdErr=1.00D-07 EigMax=2.50D+02 EigMin=1.00D-04
 Number of steps in this run=      2 maximum allowed number of steps=      2.
 GradGradGradGradGradGradGradGradGradGradGradGradGradGradGradGradGradGrad

 Leave Link  103 at Tue May 27 10:41:42 2025, MaxMem=   104857600 cpu:               0.0 elap:               0.3
 (Enter /mlatom/software/Gaussian/g16-avx2/l202.exe)
 Stoichiometry    C66H10
 Framework group  C1[X(C66H10)]
 Deg. of freedom   222
 Full point group                 C1      NOp   1
 Largest Abelian subgroup         C1      NOp   1
 Largest concise Abelian subgroup C1      NOp   1
                         Standard orientation:                         
 ---------------------------------------------------------------------
 Center     Atomic      Atomic             Coordinates (Angstroms)
 Number     Number       Type             X           Y           Z
 ---------------------------------------------------------------------
      1          6           0        1.985767   -2.299963   -2.365163
      2          6           0        0.569950   -2.305107   -2.674097
      3          6           0       -0.026296   -1.178268   -3.238170
      4          6           0        0.773690   -0.003864   -3.520912
      5          6           0        2.135047    0.000520   -3.228315
      6          6           0        2.753058   -1.170186   -2.636472
      7          6           0        2.175826   -3.023397   -1.122362
      8          6           0        0.876318   -3.473963   -0.664533
      9          6           0       -0.114657   -3.026476   -1.624499
     10          6           0       -1.363184   -2.590597   -1.185299
     11          6           0       -1.329380   -0.738827   -2.787349
     12          6           0       -0.032857    1.166470   -3.240773
     13          6           0        0.556645    2.298037   -2.679026
     14          6           0        1.972458    2.302126   -2.370289
     15          6           0        2.746245    1.176206   -2.639136
     16          6           0        3.738001    0.732260   -1.680167
     17          6           0        3.742206   -0.718284   -1.678542
     18          6           0        3.924552   -1.412582   -0.485269
     19          6           0        3.125456   -2.588508   -0.201499
     20          6           0        0.578974   -3.473983    0.695210
     21          6           0        1.567358   -3.022493    1.654680
     22          6           0        2.814947   -2.587871    1.215228
     23          6           0        3.422000   -1.411461    1.806370
     24          6           0        4.108290   -0.685444    0.755650
     25          6           0        4.104183    0.707015    0.754105
     26          6           0        3.916236    1.430291   -0.488439
     27          6           0        3.110257    2.602160   -0.207242
     28          6           0        2.158233    3.029514   -1.129091
     29          6           0       -1.333114    0.720422   -2.788876
     30          6           0       -0.740442    3.019032    1.144866
     31          6           0       -1.685943    2.574607    0.223752
     32          6           0       -2.488369    1.408243    0.503955
     33          6           0       -2.319346    0.723023    1.696390
     34          6           0       -1.326432    1.169023    2.650209
     35          6           0        0.860309    2.304060    2.697517
     36          6           0        1.549182    3.030756    1.647795
     37          6           0        0.558143    3.474223    0.687393
     38          6           0        0.856032    3.473311   -0.672177
     39          6           0       -0.132136    3.017551   -1.630857
     40          6           0       -1.377336    2.574246   -1.189667
     41          6           0       -2.476026   -1.424894    0.507106
     42          6           0       -2.314979   -0.736902    1.698521
     43          6           0       -1.319315   -1.175621    2.653652
     44          6           0       -0.710587   -0.000742    3.243647
     45          6           0        0.648557    0.003604    3.547254
     46          6           0        1.450443    1.178785    3.266721
     47          6           0        2.799515    2.602756    1.209442
     48          6           0        3.413533    1.431295    1.803166
     49          6           0        2.752494    0.734293    2.811412
     50          6           0        2.756863   -0.716163    2.813094
     51          6           0        1.457527   -1.167437    3.269576
     52          6           0        0.874256   -2.297621    2.702987
     53          6           0       -0.540843   -2.302726    2.390957
     54          6           0       -0.721943   -3.025726    1.151886
     55          6           0       -1.669509   -2.588635    0.228966
     56          6           0       -1.990166    1.406796   -1.779077
     57          6           0       -1.983613   -1.427447   -1.776881
     58          6           0       -0.554807    2.299996    2.385215
     59          6           0       -2.783465    0.709366   -0.756919
     60          6           0       -2.778769   -0.731811   -0.754011
     61          6           0       -5.605081   -0.720042   -0.194126
     62          6           0       -5.594168    0.710628   -0.206977
     63          6           0       -6.147460   -1.476688    0.997512
     64          1           0       -6.984436   -2.121225    0.694252
     65          1           0       -5.371980   -2.119311    1.435565
     66          1           0       -6.514766   -0.787077    1.765540
     67          6           0       -6.108335    1.517638    0.967630
     68          1           0       -7.196987    1.422884    1.077092
     69          1           0       -5.652519    1.221483    1.918586
     70          1           0       -5.889524    2.577399    0.823527
     71          6           0       -4.900763    1.376079   -1.202531
     72          1           0       -4.735157    0.940927   -2.179318
     73          1           0       -4.805198    2.458516   -1.175514
     74          6           0       -4.909750   -1.414814   -1.166376
     75          1           0       -4.833894   -2.498048   -1.104981
     76          1           0       -4.736424   -1.010268   -2.155224
 ---------------------------------------------------------------------
 Rotational constants (GHZ):           0.0809646           0.0559305           0.0554954
 Leave Link  202 at Tue May 27 10:41:42 2025, MaxMem=   104857600 cpu:               0.0 elap:               0.1
 (Enter /mlatom/software/Gaussian/g16-avx2/l301.exe)
 Standard basis: STO-3G (5D, 7F)
 Ernie: Thresh=  0.10000D-02 Tol=  0.10000D-05 Strict=F.
 There are   340 symmetry adapted cartesian basis functions of A   symmetry.
 There are   340 symmetry adapted basis functions of A   symmetry.
   340 basis functions,  1020 primitive gaussians,   340 cartesian basis functions
   203 alpha electrons      203 beta electrons
       nuclear repulsion energy      9921.5638221122 Hartrees.
 IExCor=    0 DFT=F Ex=HF Corr=None ExCW=0 ScaHFX=  1.000000
 ScaDFX=  1.000000  1.000000  1.000000  1.000000 ScalE2=  1.000000  1.000000
 IRadAn=      5 IRanWt=     -1 IRanGd=            0 ICorTp=0 IEmpDi=  4
 NAtoms=   76 NActive=   76 NUniq=   76 SFac= 1.00D+00 NAtFMM=   60 NAOKFM=T Big=T
 Integral buffers will be    131072 words long.
 Raffenetti 1 integral format.
 Two-electron integral symmetry is turned on.
 Leave Link  301 at Tue May 27 10:41:42 2025, MaxMem=   104857600 cpu:               0.0 elap:               0.1
 (Enter /mlatom/software/Gaussian/g16-avx2/l402.exe)
 External calculation of energy, first and second derivatives.
 Running external command "/mlatom/software/miniconda3/bin/python /mlatom/software/mlatom_xacs/mlatom/interfaces/gaussian_interface.py model_predict_kwargs R"
         input file       "/mlatom/home/huangyh/projects/delta_learning/paper/revision1/Starting_from_ub3lyp_d4/c60/ADL/ts1/Gau-135412.EIn"
         output file      "/mlatom/home/huangyh/projects/delta_learning/paper/revision1/Starting_from_ub3lyp_d4/c60/ADL/ts1/Gau-135412.EOu"
         message file     "/mlatom/home/huangyh/projects/delta_learning/paper/revision1/Starting_from_ub3lyp_d4/c60/ADL/ts1/Gau-135412.EMs"
         fchk file        "/mlatom/home/huangyh/projects/delta_learning/paper/revision1/Starting_from_ub3lyp_d4/c60/ADL/ts1/Gau-135412.EFC"
         mat. el file     "/mlatom/home/huangyh/projects/delta_learning/paper/revision1/Starting_from_ub3lyp_d4/c60/ADL/ts1/Gau-135412.EUF"
model loaded from /mlatom/home/huangyh/projects/delta_learning/paper/revision1/Starting_from_ub3lyp_d4/c60/ADL/ADL_main_model_C60_butadiene.npz
 Recovered energy= -2521.15616560     dipole=     -4.002988898380      0.000000000000      0.045748444553
 Energy=    -2521.15617     NIter=   0.
 Dipole moment=      -4.002989       0.000000       0.045748
 Leave Link  402 at Tue May 27 10:43:24 2025, MaxMem=   104857600 cpu:               0.1 elap:             102.0
 (Enter /mlatom/software/Gaussian/g16-avx2/l601.exe)
 Leave Link  601 at Tue May 27 10:43:24 2025, MaxMem=   104857600 cpu:               0.0 elap:               0.1
 (Enter /mlatom/software/Gaussian/g16-avx2/l716.exe)
 Dipole        =-4.00298890D+00 0.00000000D+00 4.57484446D-02
 Full mass-weighted force constant matrix:
 Low frequencies --- -311.2690  -43.4839  -35.5859  -34.1848   -0.1862   -0.0367
 Low frequencies ---    0.0786   38.9044   50.2776
 ******    1 imaginary frequencies (negative Signs) ****** 
 Diagonal vibrational polarizability:
        0.0000000       0.0000000       0.0000000
 Harmonic frequencies (cm**-1), IR intensities (KM/Mole), Raman scattering
 activities (A**4/AMU), depolarization ratios for plane and unpolarized
 incident light, reduced masses (AMU), force constants (mDyne/A),
 and normal coordinates:
                      1                      2                      3
                      A                      A                      A
 Frequencies --   -311.2683                35.3192                49.8222
 Red. masses --      7.7986                 3.4980                 4.3852
 Frc consts  --      0.4452                 0.0026                 0.0064
 IR Inten    --      0.0000                 0.0000                 0.0000
  Atom  AN      X      Y      Z        X      Y      Z        X      Y      Z
     1   6    -0.01  -0.00  -0.00     0.02   0.01  -0.01     0.01  -0.00   0.00
     2   6    -0.01  -0.00   0.01     0.02   0.00  -0.01     0.02   0.00  -0.01
     3   6    -0.02   0.00   0.02     0.01  -0.00  -0.01     0.03   0.00  -0.02
     4   6    -0.01  -0.00   0.02     0.01   0.01  -0.00     0.03  -0.00  -0.01
     5   6    -0.01  -0.00   0.00     0.01   0.01   0.00     0.03  -0.01   0.00
     6   6    -0.01  -0.00   0.00     0.01   0.02  -0.00     0.02  -0.01   0.01
     7   6    -0.00  -0.00  -0.00     0.02   0.01  -0.01    -0.01  -0.00   0.01
     8   6    -0.00   0.00   0.00     0.02  -0.00  -0.02    -0.01   0.00  -0.01
     9   6    -0.00   0.01   0.00     0.02  -0.01  -0.02     0.00   0.00  -0.02
    10   6    -0.01   0.02   0.00     0.02  -0.02  -0.02    -0.00   0.01  -0.04
    11   6    -0.02  -0.01   0.02     0.01  -0.01  -0.01     0.02   0.01  -0.04
    12   6    -0.02  -0.00   0.02    -0.00  -0.00  -0.00     0.03   0.00  -0.03
    13   6    -0.01   0.00   0.01    -0.01   0.00   0.01     0.03   0.00  -0.02
    14   6    -0.00   0.00  -0.00    -0.01   0.01   0.01     0.03  -0.00  -0.00
    15   6    -0.01   0.00  -0.00    -0.00   0.02   0.01     0.03  -0.01   0.01
    16   6    -0.01   0.00  -0.00    -0.00   0.02   0.01     0.01  -0.01   0.02
    17   6    -0.01  -0.00  -0.00     0.01   0.02   0.00     0.01  -0.01   0.02
    18   6    -0.00  -0.00  -0.00     0.01   0.01   0.00    -0.01  -0.01   0.03
    19   6    -0.00  -0.00  -0.00     0.01   0.01  -0.01    -0.02  -0.01   0.02
    20   6    -0.00   0.00  -0.00     0.02  -0.01  -0.02    -0.03   0.00  -0.01
    21   6    -0.00  -0.00  -0.00     0.01  -0.01  -0.01    -0.04   0.00  -0.00
    22   6    -0.00  -0.00  -0.00     0.01   0.00  -0.01    -0.03  -0.00   0.01
    23   6    -0.00  -0.00  -0.00     0.00   0.00  -0.00    -0.04  -0.00   0.02
    24   6    -0.00  -0.00  -0.00     0.00   0.01   0.00    -0.02  -0.01   0.03
    25   6    -0.00   0.00  -0.00    -0.01   0.01   0.01    -0.02  -0.01   0.03
    26   6    -0.00   0.00  -0.00    -0.01   0.01   0.01     0.00  -0.01   0.02
    27   6    -0.00   0.00  -0.00    -0.02   0.01   0.01     0.00  -0.01   0.01
    28   6    -0.00   0.00  -0.00    -0.02   0.01   0.01     0.01  -0.00   0.00
    29   6    -0.02   0.01   0.02     0.00  -0.01  -0.01     0.02   0.01  -0.04
    30   6    -0.00  -0.01  -0.00    -0.03  -0.02   0.00    -0.01   0.01  -0.03
    31   6    -0.00  -0.02  -0.00    -0.02  -0.02   0.00    -0.00   0.01  -0.05
    32   6    -0.03   0.01  -0.01    -0.02  -0.03  -0.01    -0.00   0.01  -0.05
    33   6    -0.01   0.01  -0.02    -0.01  -0.03  -0.01    -0.02   0.02  -0.05
    34   6    -0.01  -0.00  -0.02    -0.02  -0.03  -0.00    -0.04   0.01  -0.04
    35   6    -0.00   0.00  -0.00    -0.02  -0.02   0.01    -0.03   0.01  -0.01
    36   6    -0.00   0.00  -0.00    -0.03  -0.01   0.01    -0.02   0.00  -0.01
    37   6    -0.00  -0.00  -0.00    -0.03  -0.01   0.01    -0.01   0.01  -0.02
    38   6    -0.00  -0.00   0.00    -0.02  -0.00   0.01     0.01   0.00  -0.02
    39   6    -0.00  -0.01   0.00    -0.02  -0.01   0.01     0.02   0.00  -0.03
    40   6    -0.01  -0.02   0.00    -0.01  -0.02   0.00     0.01   0.01  -0.04
    41   6    -0.03  -0.01  -0.00     0.01  -0.03  -0.02    -0.01   0.02  -0.05
    42   6    -0.01  -0.01  -0.02    -0.00  -0.03  -0.01    -0.03   0.01  -0.05
    43   6    -0.00   0.00  -0.02    -0.00  -0.03  -0.01    -0.05   0.01  -0.04
    44   6    -0.00   0.00  -0.02    -0.01  -0.03  -0.01    -0.05   0.01  -0.03
    45   6    -0.01   0.00  -0.01    -0.01  -0.02  -0.00    -0.05   0.01  -0.01
    46   6    -0.00   0.00  -0.00    -0.02  -0.02   0.00    -0.05   0.00  -0.01
    47   6    -0.00   0.00  -0.00    -0.02   0.00   0.01    -0.02  -0.00   0.01
    48   6    -0.00   0.00  -0.00    -0.02   0.00   0.01    -0.03  -0.00   0.02
    49   6    -0.00   0.00  -0.00    -0.01  -0.01   0.01    -0.04  -0.00   0.01
    50   6    -0.00  -0.00  -0.00    -0.01  -0.01  -0.00    -0.05  -0.00   0.01
    51   6    -0.00  -0.00  -0.00    -0.00  -0.02  -0.01    -0.05   0.00  -0.00
    52   6    -0.00  -0.00  -0.00     0.01  -0.02  -0.01    -0.05   0.00  -0.01
    53   6    -0.00  -0.00  -0.01     0.01  -0.03  -0.01    -0.05   0.01  -0.03
    54   6    -0.00   0.01  -0.00     0.02  -0.02  -0.02    -0.03   0.01  -0.03
    55   6    -0.00   0.02  -0.00     0.02  -0.02  -0.02    -0.02   0.01  -0.04
    56   6    -0.04   0.00  -0.01    -0.00  -0.02  -0.00     0.01   0.01  -0.05
    57   6    -0.04  -0.00  -0.01     0.00  -0.02  -0.02     0.00   0.01  -0.05
    58   6    -0.00   0.00  -0.01    -0.02  -0.03   0.00    -0.03   0.01  -0.03
    59   6    -0.31   0.08  -0.06    -0.00  -0.03  -0.01     0.01   0.01  -0.05
    60   6    -0.30  -0.08  -0.06     0.00  -0.03  -0.01    -0.00   0.01  -0.06
    61   6     0.08   0.05   0.05     0.02   0.06   0.10     0.08  -0.02   0.11
    62   6     0.08  -0.07   0.05     0.02   0.06  -0.04     0.04  -0.02   0.14
    63   6    -0.00  -0.01  -0.04     0.09   0.18   0.21     0.25  -0.07   0.15
    64   1     0.02  -0.00  -0.11     0.10   0.12   0.33     0.26  -0.12   0.24
    65   1    -0.02  -0.02  -0.03     0.14   0.26   0.25     0.35  -0.02   0.07
    66   1    -0.06  -0.04  -0.04     0.11   0.26   0.15     0.29  -0.10   0.20
    67   6     0.00   0.01  -0.04     0.00   0.18  -0.14     0.12  -0.07   0.21
    68   1    -0.01   0.05  -0.13    -0.00   0.18  -0.14     0.13  -0.11   0.29
    69   1    -0.08   0.05   0.00    -0.01   0.29  -0.10     0.20  -0.09   0.16
    70   1     0.04  -0.00  -0.08    -0.01   0.17  -0.25     0.08  -0.06   0.22
    71   6     0.41  -0.10   0.10     0.02  -0.04  -0.11    -0.05   0.02   0.10
    72   1    -0.07   0.03  -0.05     0.03  -0.14  -0.06    -0.11   0.05   0.08
    73   1     0.35  -0.09   0.15     0.03  -0.04  -0.21    -0.07   0.02   0.13
    74   6     0.41   0.10   0.08    -0.03  -0.04   0.13     0.01   0.02   0.03
    75   1     0.37   0.10   0.07    -0.04  -0.03   0.23     0.04   0.02  -0.01
    76   1    -0.08   0.02  -0.04    -0.08  -0.13   0.09    -0.09   0.04   0.02
                      4                      5                      6
                      A                      A                      A
 Frequencies --     73.9052               110.9721               126.9873
 Red. masses --      2.8421                 5.4413                 4.3258
 Frc consts  --      0.0091                 0.0395                 0.0411
 IR Inten    --      0.0000                 0.0000                 0.0000
  Atom  AN      X      Y      Z        X      Y      Z        X      Y      Z
     1   6     0.02   0.00   0.00     0.02  -0.01   0.01    -0.04   0.00  -0.00
     2   6     0.02  -0.00  -0.00     0.01  -0.03   0.01    -0.04   0.00   0.01
     3   6     0.02  -0.01  -0.01    -0.00  -0.04   0.01    -0.04   0.01   0.01
     4   6     0.01  -0.00  -0.00    -0.02  -0.03   0.00    -0.04   0.01   0.00
     5   6     0.01   0.00   0.00    -0.02  -0.01  -0.00    -0.04   0.00  -0.00
     6   6     0.02   0.01   0.00     0.00  -0.00   0.00    -0.05   0.00  -0.01
     7   6     0.02   0.01   0.00     0.03  -0.00   0.01    -0.04   0.00  -0.00
     8   6     0.02  -0.00  -0.00     0.04  -0.02   0.02    -0.03  -0.00   0.01
     9   6     0.02  -0.01  -0.01     0.02  -0.03   0.02    -0.04   0.00   0.01
    10   6     0.01  -0.02  -0.01     0.02  -0.05   0.02    -0.03   0.00   0.03
    11   6     0.01  -0.02  -0.01    -0.01  -0.06   0.01    -0.03   0.01   0.02
    12   6     0.01  -0.01  -0.01    -0.03  -0.04  -0.00    -0.03   0.01   0.01
    13   6    -0.00  -0.01  -0.01    -0.04  -0.03  -0.01    -0.03   0.01   0.01
    14   6    -0.00   0.00  -0.00    -0.05  -0.01  -0.01    -0.03   0.01   0.00
    15   6     0.00   0.01   0.00    -0.03  -0.00  -0.01    -0.04   0.00  -0.00
    16   6     0.00   0.01   0.01    -0.02   0.02  -0.01    -0.03  -0.00  -0.01
    17   6     0.01   0.01   0.01    -0.00   0.02  -0.00    -0.04  -0.00  -0.01
    18   6     0.01   0.01   0.01     0.01   0.02  -0.00    -0.03  -0.00  -0.02
    19   6     0.01   0.01   0.01     0.03   0.01   0.01    -0.03  -0.00  -0.01
    20   6     0.02  -0.00  -0.00     0.04  -0.02   0.02    -0.02   0.00   0.01
    21   6     0.01   0.00  -0.00     0.04  -0.00   0.01    -0.02   0.00   0.01
    22   6     0.01   0.01   0.00     0.03   0.01   0.01    -0.02  -0.00  -0.01
    23   6     0.00   0.01   0.01     0.02   0.02   0.00    -0.01  -0.00  -0.01
    24   6     0.00   0.02   0.01     0.01   0.03  -0.00    -0.02  -0.00  -0.02
    25   6    -0.01   0.02   0.01    -0.02   0.03  -0.01    -0.01  -0.01  -0.02
    26   6    -0.01   0.01   0.01    -0.03   0.02  -0.01    -0.02  -0.00  -0.01
    27   6    -0.01   0.01   0.00    -0.04   0.01  -0.01    -0.01  -0.00  -0.00
    28   6    -0.01   0.00  -0.00    -0.05  -0.00  -0.01    -0.02   0.00   0.00
    29   6     0.01  -0.02  -0.01    -0.02  -0.06   0.01    -0.03   0.01   0.02
    30   6    -0.02  -0.01  -0.01    -0.04  -0.03   0.01     0.00   0.01   0.03
    31   6    -0.01  -0.02  -0.01    -0.03  -0.04   0.01    -0.01   0.01   0.03
    32   6     0.00  -0.02  -0.02    -0.00  -0.06   0.01    -0.00   0.01   0.03
    33   6    -0.00  -0.02  -0.02    -0.01  -0.06   0.02     0.00   0.01   0.03
    34   6    -0.01  -0.01  -0.01    -0.01  -0.04   0.01     0.01   0.01   0.03
    35   6    -0.02  -0.00  -0.00    -0.03  -0.01  -0.00     0.01   0.01   0.02
    36   6    -0.02   0.00  -0.00    -0.04  -0.00  -0.01     0.00   0.00   0.01
    37   6    -0.02  -0.00  -0.01    -0.05  -0.02  -0.00    -0.00   0.01   0.02
    38   6    -0.02  -0.00  -0.01    -0.05  -0.01  -0.01    -0.01   0.01   0.01
    39   6    -0.01  -0.01  -0.01    -0.05  -0.03  -0.00    -0.02   0.01   0.02
    40   6    -0.01  -0.02  -0.01    -0.03  -0.04   0.01    -0.01   0.01   0.03
    41   6     0.00  -0.02  -0.02    -0.01  -0.06   0.02    -0.01   0.01   0.03
    42   6    -0.00  -0.02  -0.02     0.01  -0.06   0.01    -0.00   0.01   0.03
    43   6    -0.00  -0.01  -0.01     0.02  -0.04   0.01    -0.00   0.01   0.03
    44   6    -0.01  -0.01  -0.01     0.00  -0.03   0.01     0.01   0.01   0.03
    45   6    -0.01  -0.00  -0.00     0.01  -0.01   0.01     0.01   0.00   0.02
    46   6    -0.02   0.00  -0.00    -0.01  -0.00   0.00     0.01   0.00   0.01
    47   6    -0.02   0.01   0.00    -0.04   0.01  -0.01    -0.00  -0.00  -0.00
    48   6    -0.01   0.01   0.01    -0.02   0.02  -0.01    -0.00  -0.00  -0.01
    49   6    -0.01   0.01   0.00    -0.01   0.02  -0.00     0.01  -0.00  -0.00
    50   6    -0.01   0.01   0.00     0.01   0.02   0.00     0.00  -0.00  -0.00
    51   6    -0.01   0.00  -0.00     0.02  -0.00   0.01     0.00   0.00   0.01
    52   6     0.00  -0.00  -0.00     0.03  -0.01   0.01    -0.00   0.00   0.01
    53   6     0.00  -0.01  -0.01     0.03  -0.03   0.01    -0.01   0.01   0.03
    54   6     0.01  -0.01  -0.01     0.03  -0.03   0.02    -0.02   0.00   0.03
    55   6     0.01  -0.02  -0.01     0.02  -0.05   0.02    -0.02   0.00   0.03
    56   6     0.00  -0.02  -0.02    -0.01  -0.06   0.02    -0.01   0.01   0.03
    57   6     0.01  -0.02  -0.01    -0.00  -0.06   0.01    -0.01   0.01   0.03
    58   6    -0.02  -0.01  -0.01    -0.03  -0.03   0.01     0.01   0.01   0.03
    59   6    -0.01  -0.02  -0.02     0.04  -0.06   0.02     0.00   0.01   0.03
    60   6     0.01  -0.02  -0.01    -0.04  -0.06   0.01     0.03   0.02   0.04
    61   6    -0.05   0.03   0.03     0.06   0.18  -0.10     0.07  -0.05  -0.11
    62   6     0.06   0.03   0.06     0.00   0.18  -0.00     0.12  -0.04  -0.12
    63   6    -0.21   0.06  -0.02     0.16   0.08  -0.12     0.17  -0.01  -0.04
    64   1    -0.39   0.31  -0.07     0.21   0.02  -0.13     0.13   0.00   0.06
    65   1    -0.38  -0.19  -0.10     0.24   0.13  -0.18     0.21  -0.01  -0.11
    66   1    -0.02   0.09   0.04     0.12   0.01  -0.07     0.27   0.02  -0.02
    67   6     0.22   0.05   0.12     0.02   0.08   0.07     0.31  -0.03  -0.06
    68   1     0.21   0.20   0.15     0.03   0.05   0.10     0.30   0.10   0.02
    69   1     0.21  -0.07   0.08     0.05   0.01   0.04     0.34  -0.13  -0.11
    70   1     0.37   0.03   0.16    -0.00   0.10   0.15     0.42  -0.05  -0.04
    71   6     0.07  -0.00   0.03    -0.06   0.25   0.02     0.09  -0.07  -0.16
    72   1    -0.04   0.01   0.01    -0.01   0.29   0.01     0.06  -0.09  -0.16
    73   1     0.13  -0.01   0.04    -0.02   0.24   0.09     0.10  -0.07  -0.19
    74   6    -0.08  -0.00   0.04     0.09   0.24  -0.14    -0.01  -0.08  -0.12
    75   1    -0.15  -0.01   0.02     0.06   0.24  -0.21    -0.01  -0.08  -0.10
    76   1    -0.02   0.01   0.05     0.04   0.29  -0.12     0.04  -0.09  -0.12
                      7                      8                      9
                      A                      A                      A
 Frequencies --    147.8915               199.4783               238.8205
 Red. masses --      1.0731                 3.9304                 7.4287
 Frc consts  --      0.0138                 0.0921                 0.2496
 IR Inten    --      0.0000                 0.0000                 0.0000
  Atom  AN      X      Y      Z        X      Y      Z        X      Y      Z
     1   6    -0.00  -0.00  -0.00    -0.00  -0.00  -0.00    -0.00  -0.04  -0.05
     2   6    -0.00   0.00   0.00    -0.00   0.01  -0.00     0.01  -0.04  -0.06
     3   6    -0.00   0.00   0.00     0.00   0.01   0.00     0.03  -0.02  -0.07
     4   6    -0.00   0.00   0.00    -0.00   0.01  -0.00     0.01  -0.00  -0.09
     5   6    -0.00  -0.00   0.00    -0.00   0.00  -0.00     0.00  -0.00  -0.08
     6   6    -0.00  -0.00  -0.00    -0.00  -0.00  -0.00    -0.02  -0.02  -0.06
     7   6    -0.00  -0.00  -0.00    -0.00  -0.01  -0.00    -0.02  -0.04  -0.04
     8   6    -0.00   0.00   0.00    -0.00  -0.00  -0.00    -0.01  -0.06  -0.02
     9   6    -0.00   0.00   0.00     0.00   0.01  -0.00     0.01  -0.05  -0.04
    10   6    -0.00   0.00   0.00     0.01   0.02   0.00     0.05  -0.02   0.00
    11   6    -0.00   0.00   0.00     0.01   0.01   0.01     0.07  -0.00  -0.01
    12   6    -0.00   0.00   0.00    -0.00   0.01  -0.01     0.03   0.02  -0.07
    13   6    -0.00   0.00   0.00    -0.00   0.01  -0.00     0.00   0.04  -0.06
    14   6    -0.00  -0.00   0.00    -0.00  -0.00   0.00    -0.01   0.03  -0.05
    15   6    -0.00  -0.00   0.00    -0.00  -0.00   0.00    -0.02   0.01  -0.06
    16   6    -0.00  -0.00  -0.00    -0.00  -0.01   0.00    -0.07  -0.00  -0.03
    17   6    -0.00  -0.00  -0.00    -0.00  -0.01  -0.00    -0.07  -0.00  -0.03
    18   6    -0.00  -0.00  -0.00    -0.00  -0.01  -0.00    -0.10   0.00  -0.02
    19   6    -0.00  -0.00  -0.00    -0.00  -0.01  -0.00    -0.06  -0.01  -0.02
    20   6    -0.00   0.00   0.00    -0.00  -0.00  -0.00    -0.02  -0.06   0.00
    21   6    -0.00  -0.00   0.00    -0.00  -0.01   0.00    -0.04  -0.04   0.01
    22   6    -0.00  -0.00  -0.00    -0.00  -0.01  -0.00    -0.07  -0.01  -0.02
    23   6     0.00  -0.00  -0.00    -0.00  -0.01   0.00    -0.11   0.01  -0.03
    24   6     0.00  -0.00  -0.00    -0.00  -0.01  -0.00    -0.14   0.01  -0.03
    25   6     0.00  -0.00  -0.00    -0.00  -0.01   0.00    -0.14  -0.01  -0.03
    26   6     0.00  -0.00  -0.00    -0.00  -0.01   0.00    -0.10  -0.01  -0.02
    27   6     0.00  -0.00  -0.00    -0.00  -0.01   0.00    -0.06   0.01  -0.02
    28   6     0.00  -0.00   0.00    -0.00  -0.01   0.00    -0.03   0.04  -0.03
    29   6    -0.00   0.00   0.00    -0.00   0.01  -0.01     0.07  -0.00  -0.01
    30   6     0.00   0.00   0.00    -0.01   0.01  -0.00    -0.01   0.06   0.03
    31   6     0.00   0.00   0.00    -0.01   0.02  -0.00     0.04   0.03   0.01
    32   6    -0.00   0.00   0.00    -0.01   0.01  -0.01     0.11  -0.00   0.03
    33   6    -0.00   0.00   0.00    -0.00   0.01  -0.00     0.04   0.00   0.04
    34   6     0.00   0.00   0.00    -0.00   0.00  -0.00    -0.02   0.02   0.07
    35   6     0.00  -0.00   0.00    -0.00  -0.01  -0.00    -0.04   0.04   0.04
    36   6     0.00  -0.00   0.00    -0.00  -0.01  -0.00    -0.04   0.04   0.01
    37   6     0.00  -0.00   0.00    -0.00  -0.00   0.00    -0.02   0.06   0.00
    38   6     0.00   0.00   0.00    -0.00   0.00   0.00    -0.01   0.06  -0.02
    39   6     0.00   0.00   0.00    -0.00   0.01  -0.00     0.01   0.05  -0.04
    40   6     0.00   0.00   0.00    -0.01   0.02  -0.00     0.05   0.02   0.00
    41   6     0.00   0.00   0.00     0.02   0.01   0.01     0.11   0.01   0.03
    42   6    -0.00   0.00   0.00     0.01   0.01   0.00     0.04  -0.00   0.04
    43   6     0.00   0.00   0.00     0.00   0.00   0.01    -0.01  -0.02   0.07
    44   6     0.00   0.00   0.00    -0.00   0.00   0.00    -0.04   0.00   0.09
    45   6     0.00  -0.00   0.00    -0.00  -0.01   0.00    -0.04   0.00   0.06
    46   6     0.00  -0.00   0.00    -0.00  -0.01  -0.00    -0.06   0.01   0.03
    47   6     0.00  -0.00  -0.00    -0.00  -0.01   0.00    -0.07   0.01  -0.02
    48   6     0.00  -0.00  -0.00    -0.00  -0.01  -0.00    -0.11  -0.01  -0.03
    49   6     0.00  -0.00  -0.00    -0.00  -0.01  -0.00    -0.09  -0.00  -0.02
    50   6     0.00  -0.00   0.00    -0.00  -0.01   0.00    -0.09   0.00  -0.02
    51   6     0.00  -0.00   0.00    -0.00  -0.01   0.00    -0.06  -0.01   0.03
    52   6     0.00  -0.00   0.00     0.00  -0.01   0.00    -0.04  -0.04   0.04
    53   6     0.00   0.00   0.00     0.00  -0.00   0.00    -0.03  -0.04   0.05
    54   6     0.00   0.00   0.00     0.00   0.00   0.00    -0.01  -0.05   0.03
    55   6     0.00   0.00   0.00     0.01   0.02   0.00     0.04  -0.03   0.01
    56   6    -0.00   0.00   0.00    -0.00   0.01  -0.00     0.11  -0.01   0.02
    57   6    -0.00   0.00   0.00     0.01   0.01   0.00     0.12   0.01   0.02
    58   6     0.00   0.00   0.00    -0.00   0.00  -0.00    -0.03   0.04   0.05
    59   6     0.00   0.00   0.00     0.05   0.00  -0.00     0.22  -0.02   0.05
    60   6    -0.01   0.00   0.00    -0.03   0.01   0.00     0.22   0.03   0.05
    61   6     0.02  -0.00   0.00     0.08  -0.00   0.04     0.15  -0.01   0.05
    62   6    -0.01  -0.00  -0.02    -0.06   0.00  -0.04     0.15   0.01   0.06
    63   6     0.02   0.02   0.01    -0.08  -0.00  -0.04    -0.03  -0.01  -0.03
    64   1    -0.33   0.43   0.11    -0.02  -0.02  -0.19    -0.05   0.07  -0.16
    65   1    -0.14  -0.39  -0.32    -0.15   0.00   0.09    -0.14  -0.08   0.05
    66   1     0.51   0.04   0.22    -0.24  -0.01  -0.10    -0.08  -0.01  -0.05
    67   6    -0.03  -0.02  -0.02     0.10  -0.00   0.04    -0.07   0.01  -0.04
    68   1    -0.01  -0.19   0.08     0.09   0.12   0.12    -0.09  -0.02  -0.24
    69   1     0.08   0.08  -0.04     0.13  -0.13  -0.01    -0.23   0.05   0.05
    70   1    -0.20   0.00  -0.07     0.21  -0.02   0.09    -0.08   0.01  -0.02
    71   6    -0.02   0.01  -0.02    -0.28   0.01  -0.17     0.16   0.02   0.10
    72   1     0.01   0.01  -0.01    -0.20  -0.09  -0.11     0.27   0.01   0.13
    73   1    -0.04   0.01  -0.01    -0.33   0.01  -0.26     0.15   0.02   0.10
    74   6     0.04   0.00   0.01     0.29   0.01   0.17     0.14  -0.01   0.07
    75   1     0.04   0.00  -0.01     0.34   0.01   0.25     0.12  -0.01   0.06
    76   1    -0.00   0.01   0.00     0.20  -0.09   0.12     0.25   0.02   0.11
                     10                     11                     12
                      A                      A                      A
 Frequencies --    257.5686               258.5548               261.6377
 Red. masses --     11.2514                11.8743                 9.6391
 Frc consts  --      0.4398                 0.4677                 0.3888
 IR Inten    --      0.0000                 0.0000                 0.0000
  Atom  AN      X      Y      Z        X      Y      Z        X      Y      Z
     1   6     0.05  -0.13  -0.13    -0.02  -0.06   0.07     0.08  -0.01  -0.02
     2   6     0.02  -0.14  -0.14    -0.01  -0.06   0.08     0.07   0.02   0.06
     3   6    -0.01  -0.11  -0.09     0.01  -0.01   0.15     0.08   0.03   0.11
     4   6    -0.00  -0.10   0.00    -0.02  -0.00   0.19     0.08   0.00   0.08
     5   6     0.00  -0.10   0.00    -0.05  -0.00   0.18     0.11   0.00  -0.03
     6   6     0.05  -0.11  -0.07    -0.06  -0.02   0.12     0.12  -0.02  -0.06
     7   6     0.05  -0.10  -0.10     0.02  -0.15   0.02     0.05  -0.02  -0.02
     8   6     0.03  -0.05  -0.10     0.00  -0.21  -0.00     0.03   0.01   0.01
     9   6     0.00  -0.09  -0.11    -0.02  -0.15   0.01     0.03   0.04   0.05
    10   6     0.01  -0.04  -0.09    -0.03  -0.12  -0.00     0.02   0.03   0.08
    11   6    -0.01  -0.08  -0.06     0.02  -0.01   0.11     0.09   0.02   0.15
    12   6     0.01  -0.11   0.09     0.01   0.01   0.15     0.08  -0.02   0.11
    13   6    -0.02  -0.14   0.14    -0.01   0.06   0.08     0.06  -0.02   0.06
    14   6    -0.05  -0.14   0.13    -0.02   0.06   0.08     0.08   0.01  -0.02
    15   6    -0.04  -0.11   0.07    -0.06   0.01   0.13     0.12   0.02  -0.06
    16   6    -0.03  -0.07   0.04    -0.05   0.01   0.08     0.16   0.01  -0.10
    17   6     0.03  -0.07  -0.04    -0.05  -0.01   0.08     0.17  -0.02  -0.10
    18   6     0.04  -0.05  -0.04    -0.01  -0.05   0.03     0.11  -0.03  -0.08
    19   6     0.04  -0.05  -0.07     0.03  -0.11   0.01     0.06  -0.02  -0.05
    20   6     0.03   0.06  -0.10     0.00  -0.21   0.00    -0.03   0.01  -0.00
    21   6     0.00   0.09  -0.11     0.02  -0.15  -0.02    -0.03   0.03  -0.05
    22   6     0.01   0.04  -0.08     0.03  -0.11  -0.00    -0.02   0.02  -0.07
    23   6    -0.01   0.04  -0.05    -0.00  -0.05  -0.04    -0.04   0.02  -0.11
    24   6     0.01  -0.00  -0.03    -0.02  -0.01  -0.01     0.03  -0.00  -0.09
    25   6    -0.01  -0.00   0.03    -0.02   0.01  -0.01     0.03  -0.00  -0.09
    26   6    -0.04  -0.05   0.04    -0.02   0.05   0.03     0.10   0.02  -0.08
    27   6    -0.03  -0.05   0.07     0.02   0.11   0.01     0.06   0.01  -0.06
    28   6    -0.05  -0.10   0.10     0.01   0.15   0.02     0.05   0.02  -0.03
    29   6     0.01  -0.08   0.05     0.02   0.01   0.11     0.09  -0.01   0.14
    30   6    -0.05   0.10   0.10    -0.02   0.16  -0.02    -0.05   0.03   0.03
    31   6    -0.04   0.05   0.08    -0.03   0.12  -0.01    -0.06   0.02   0.06
    32   6    -0.05   0.05   0.05     0.01   0.06  -0.03    -0.09   0.03   0.08
    33   6    -0.04   0.08   0.05     0.05   0.01  -0.08    -0.16   0.02   0.09
    34   6    -0.05   0.11   0.08     0.06   0.02  -0.13    -0.12   0.02   0.07
    35   6    -0.02   0.13   0.14     0.01   0.06  -0.08    -0.07  -0.02  -0.06
    36   6    -0.00   0.09   0.11     0.02   0.15  -0.02    -0.03  -0.04  -0.05
    37   6    -0.03   0.05   0.10    -0.00   0.21   0.00    -0.03  -0.01  -0.01
    38   6    -0.03  -0.06   0.10    -0.00   0.21  -0.00     0.02  -0.01   0.01
    39   6    -0.00  -0.10   0.11    -0.02   0.15   0.02     0.03  -0.03   0.05
    40   6    -0.01  -0.04   0.09    -0.03   0.12  -0.00     0.02  -0.02   0.07
    41   6     0.05   0.06  -0.05     0.02  -0.05  -0.03    -0.09  -0.02   0.08
    42   6     0.03   0.08  -0.05     0.05  -0.01  -0.08    -0.16  -0.01   0.09
    43   6     0.05   0.11  -0.08     0.06  -0.01  -0.13    -0.12  -0.02   0.07
    44   6     0.00   0.10  -0.00     0.05   0.00  -0.18    -0.11  -0.00   0.03
    45   6     0.00   0.09  -0.00     0.02   0.00  -0.19    -0.09  -0.00  -0.08
    46   6     0.01   0.10   0.08    -0.01   0.01  -0.15    -0.08  -0.03  -0.11
    47   6    -0.01   0.03   0.08     0.02   0.11  -0.00    -0.03  -0.03  -0.08
    48   6     0.02   0.04   0.05    -0.01   0.05  -0.04    -0.05  -0.03  -0.11
    49   6     0.01   0.07   0.05    -0.02   0.01  -0.10    -0.10  -0.02  -0.15
    50   6    -0.01   0.07  -0.05    -0.02  -0.01  -0.10    -0.10   0.01  -0.15
    51   6    -0.01   0.10  -0.08    -0.01  -0.01  -0.15    -0.08   0.02  -0.11
    52   6     0.02   0.13  -0.14     0.01  -0.06  -0.08    -0.06   0.01  -0.05
    53   6     0.05   0.14  -0.14     0.02  -0.06  -0.08    -0.08  -0.01   0.03
    54   6     0.05   0.11  -0.11    -0.01  -0.15  -0.02    -0.05  -0.02   0.03
    55   6     0.04   0.05  -0.08    -0.03  -0.12  -0.01    -0.05  -0.01   0.06
    56   6     0.02  -0.05   0.06     0.00   0.06   0.04     0.03  -0.02   0.10
    57   6    -0.02  -0.05  -0.06     0.00  -0.05   0.04     0.04   0.03   0.11
    58   6    -0.05   0.14   0.14     0.01   0.07  -0.08    -0.08   0.01   0.02
    59   6    -0.01   0.00   0.03     0.02   0.02   0.01    -0.03   0.00   0.08
    60   6     0.00   0.00  -0.03     0.03  -0.01   0.01    -0.03   0.00   0.08
    61   6     0.01   0.00   0.00     0.01  -0.00   0.00    -0.01   0.00  -0.01
    62   6    -0.00   0.00  -0.00     0.01   0.00   0.00    -0.01  -0.00  -0.01
    63   6     0.00   0.00   0.00    -0.01  -0.00  -0.00     0.02   0.01   0.01
    64   1    -0.02   0.03   0.00     0.00  -0.00  -0.01    -0.02   0.05   0.05
    65   1    -0.01  -0.03  -0.02    -0.01   0.00   0.01     0.02  -0.04  -0.05
    66   1     0.03   0.00   0.01    -0.02  -0.00  -0.01     0.10   0.02   0.04
    67   6    -0.00   0.00   0.00    -0.00   0.00  -0.00     0.00  -0.01   0.01
    68   1    -0.02   0.11  -0.09     0.01  -0.04   0.03    -0.03   0.17  -0.14
    69   1    -0.11  -0.10   0.02     0.04   0.05  -0.00    -0.19  -0.20   0.03
    70   1     0.12  -0.02   0.07    -0.05   0.01  -0.03     0.22  -0.04   0.14
    71   6    -0.02   0.00  -0.01     0.00   0.00   0.00    -0.01   0.00  -0.01
    72   1    -0.01  -0.00  -0.01     0.02  -0.00   0.01    -0.01  -0.00  -0.01
    73   1    -0.02   0.00  -0.02    -0.00   0.00  -0.00    -0.01   0.00  -0.01
    74   6     0.01   0.00   0.00     0.00   0.00   0.00    -0.01  -0.00  -0.00
    75   1     0.01   0.00   0.01    -0.00  -0.00  -0.00    -0.00  -0.00   0.00
    76   1    -0.00  -0.00   0.00     0.02   0.00   0.01     0.01  -0.01  -0.00
                     13                     14                     15
                      A                      A                      A
 Frequencies --    262.8006               272.6754               315.8795
 Red. masses --     10.0450                 1.1062                 3.8949
 Frc consts  --      0.4087                 0.0485                 0.2290
 IR Inten    --      0.0000                 0.0000                 0.0000
  Atom  AN      X      Y      Z        X      Y      Z        X      Y      Z
     1   6    -0.07   0.03  -0.01     0.01  -0.01  -0.01     0.03  -0.03  -0.03
     2   6    -0.06  -0.05  -0.04     0.01  -0.00  -0.00     0.03  -0.01   0.00
     3   6    -0.03  -0.05  -0.04     0.01   0.00   0.01     0.03   0.00   0.03
     4   6     0.01  -0.03   0.00     0.01  -0.00   0.00     0.03   0.00   0.01
     5   6     0.01   0.03  -0.00     0.01  -0.00  -0.01     0.04   0.00  -0.06
     6   6    -0.04   0.04   0.01     0.01  -0.01  -0.01     0.03  -0.02  -0.05
     7   6    -0.10   0.07  -0.01     0.01  -0.01  -0.01     0.02  -0.04  -0.02
     8   6    -0.09  -0.01  -0.03     0.01   0.00  -0.00     0.01  -0.02  -0.00
     9   6    -0.09  -0.08  -0.05     0.01   0.00   0.00     0.02   0.00   0.01
    10   6    -0.11  -0.13  -0.04     0.01   0.01   0.00     0.02   0.01   0.01
    11   6    -0.03  -0.07  -0.01     0.01   0.00   0.01     0.03   0.00   0.04
    12   6     0.04  -0.05   0.05     0.00  -0.00   0.00     0.03  -0.00   0.03
    13   6     0.07  -0.05   0.04     0.00  -0.00   0.00     0.03   0.01  -0.00
    14   6     0.08   0.04   0.00     0.00  -0.00  -0.00     0.03   0.03  -0.03
    15   6     0.05   0.04  -0.02     0.00  -0.00  -0.01     0.03   0.02  -0.06
    16   6     0.05   0.07  -0.01     0.00  -0.00  -0.01    -0.01   0.00  -0.03
    17   6    -0.04   0.07  -0.00     0.01  -0.01  -0.01    -0.01  -0.00  -0.03
    18   6    -0.10   0.10  -0.00     0.01  -0.01  -0.01    -0.06   0.00  -0.02
    19   6    -0.14   0.13  -0.02     0.01  -0.01  -0.01    -0.01  -0.02  -0.01
    20   6    -0.09  -0.01  -0.02     0.00   0.00  -0.00     0.01  -0.02   0.01
    21   6    -0.10   0.08  -0.05     0.00  -0.00  -0.00     0.01  -0.04   0.03
    22   6    -0.13   0.13  -0.05     0.00  -0.00  -0.00    -0.01  -0.02   0.00
    23   6    -0.10   0.11  -0.06    -0.00  -0.00  -0.01    -0.06   0.00  -0.01
    24   6    -0.06   0.10  -0.02    -0.00  -0.00  -0.01    -0.11   0.01  -0.02
    25   6     0.05   0.10   0.01    -0.01  -0.01  -0.01    -0.11  -0.01  -0.02
    26   6     0.10   0.10  -0.01    -0.01  -0.01  -0.00    -0.06  -0.00  -0.02
    27   6     0.14   0.13   0.01    -0.01  -0.01  -0.00    -0.02   0.02  -0.01
    28   6     0.11   0.07   0.00    -0.01  -0.00  -0.00     0.02   0.04  -0.02
    29   6     0.04  -0.07   0.03     0.01   0.00   0.01     0.03  -0.00   0.04
    30   6     0.10  -0.07   0.00    -0.01   0.01   0.01     0.02  -0.00  -0.00
    31   6     0.12  -0.12   0.02    -0.00   0.01   0.00     0.02  -0.01   0.00
    32   6     0.08  -0.10  -0.00     0.00   0.00   0.00    -0.01   0.00  -0.01
    33   6     0.03  -0.07   0.00    -0.00   0.00   0.00     0.04  -0.00  -0.02
    34   6     0.04  -0.03  -0.01    -0.01   0.01   0.01     0.04  -0.01  -0.02
    35   6     0.06   0.05   0.04    -0.01   0.00   0.01     0.02   0.03   0.04
    36   6     0.10   0.08   0.05    -0.01  -0.00   0.00     0.01   0.04   0.03
    37   6     0.09   0.00   0.02    -0.01   0.00   0.00     0.01   0.02   0.01
    38   6     0.09  -0.00   0.03    -0.00   0.00   0.00     0.01   0.03  -0.00
    39   6     0.10  -0.08   0.06    -0.00   0.00   0.00     0.02  -0.00   0.01
    40   6     0.12  -0.13   0.05    -0.00   0.00   0.00     0.02  -0.01   0.01
    41   6    -0.08  -0.10   0.01     0.00   0.00   0.00    -0.01  -0.00  -0.01
    42   6    -0.04  -0.07   0.01    -0.00   0.00   0.00     0.04   0.00  -0.02
    43   6    -0.05  -0.04   0.02    -0.00   0.00   0.00     0.04   0.01  -0.02
    44   6    -0.01  -0.02   0.00    -0.01   0.00   0.01     0.03   0.00  -0.00
    45   6    -0.01   0.03  -0.00    -0.01   0.00   0.00     0.01  -0.00   0.07
    46   6     0.03   0.05   0.04    -0.01   0.00   0.00     0.01   0.02   0.06
    47   6     0.13   0.14   0.04    -0.01  -0.01  -0.00    -0.02   0.02   0.00
    48   6     0.09   0.11   0.04    -0.01  -0.01  -0.01    -0.06  -0.00  -0.01
    49   6     0.03   0.08   0.02    -0.01  -0.00  -0.01    -0.01   0.00   0.03
    50   6    -0.05   0.08  -0.03    -0.01  -0.00  -0.01    -0.01  -0.00   0.03
    51   6    -0.04   0.05  -0.05    -0.00   0.00  -0.00     0.01  -0.02   0.06
    52   6    -0.07   0.04  -0.04     0.00  -0.00  -0.00     0.02  -0.03   0.04
    53   6    -0.08  -0.04   0.00     0.00   0.00   0.00     0.03  -0.01   0.01
    54   6    -0.11  -0.08   0.00     0.00   0.00   0.00     0.02   0.00  -0.00
    55   6    -0.12  -0.13  -0.01     0.01   0.01   0.00     0.02   0.02  -0.00
    56   6     0.08  -0.10   0.05     0.00   0.00   0.00    -0.01  -0.00   0.01
    57   6    -0.07  -0.10  -0.04     0.01   0.00   0.01    -0.01  -0.00   0.01
    58   6     0.07  -0.03   0.00    -0.01   0.01   0.01     0.03   0.01   0.01
    59   6     0.06  -0.09   0.02    -0.01   0.00   0.00    -0.09   0.02  -0.02
    60   6    -0.06  -0.10  -0.01    -0.00   0.00   0.00    -0.09  -0.02  -0.02
    61   6     0.01  -0.00   0.01    -0.02   0.00  -0.01    -0.07  -0.01  -0.08
    62   6    -0.02  -0.00  -0.01    -0.01  -0.00  -0.01    -0.08  -0.03  -0.08
    63   6    -0.02  -0.00  -0.01    -0.03   0.01  -0.01    -0.01   0.21   0.07
    64   1     0.02  -0.04  -0.04     0.07  -0.11  -0.04    -0.01   0.14   0.23
    65   1    -0.02   0.04   0.04     0.01   0.12   0.09     0.03   0.31   0.16
    66   1    -0.09  -0.01  -0.03    -0.15   0.00  -0.06     0.04   0.43  -0.10
    67   6     0.02  -0.01   0.01     0.04   0.00   0.01    -0.01  -0.19   0.06
    68   1     0.05  -0.15   0.18     0.12  -0.37   0.39    -0.01  -0.17   0.06
    69   1     0.21   0.12  -0.04     0.49   0.36  -0.09    -0.02  -0.42  -0.02
    70   1    -0.16   0.01  -0.09    -0.42   0.06  -0.25     0.07  -0.19   0.25
    71   6    -0.05  -0.00  -0.03     0.02  -0.01   0.00    -0.03   0.02  -0.02
    72   1     0.01  -0.03  -0.01     0.02  -0.00   0.00    -0.08   0.07  -0.05
    73   1    -0.04  -0.01  -0.04     0.02  -0.01   0.01    -0.02   0.02   0.06
    74   6     0.06  -0.00   0.04    -0.00   0.00  -0.00    -0.02  -0.02  -0.04
    75   1     0.05  -0.01   0.05     0.00   0.00  -0.00     0.03  -0.01  -0.02
    76   1     0.00  -0.03   0.02     0.01   0.00   0.00    -0.10  -0.02  -0.06
                     16                     17                     18
                      A                      A                      A
 Frequencies --    317.9827               342.0694               343.6379
 Red. masses --      3.6592                11.9830                11.3847
 Frc consts  --      0.2180                 0.8261                 0.7921
 IR Inten    --      0.0000                 0.0000                 0.0000
  Atom  AN      X      Y      Z        X      Y      Z        X      Y      Z
     1   6    -0.03   0.02   0.03     0.03  -0.15  -0.08    -0.01   0.05  -0.00
     2   6    -0.02   0.01  -0.00     0.00  -0.15  -0.08    -0.02  -0.02   0.02
     3   6    -0.03  -0.01  -0.04     0.03  -0.03   0.11     0.03   0.02   0.11
     4   6    -0.03  -0.00  -0.01    -0.01   0.00   0.17     0.04  -0.00   0.10
     5   6    -0.04  -0.00   0.05    -0.05  -0.00   0.16     0.08  -0.00  -0.06
     6   6    -0.03   0.02   0.05    -0.05  -0.04   0.07     0.09  -0.01  -0.08
     7   6    -0.01   0.03   0.02     0.06  -0.16  -0.09    -0.08   0.12   0.02
     8   6    -0.01   0.02   0.00     0.02  -0.13  -0.10    -0.06   0.02  -0.01
     9   6    -0.02  -0.00  -0.01    -0.02  -0.17  -0.10    -0.07  -0.09  -0.03
    10   6    -0.01  -0.01  -0.01    -0.00  -0.06  -0.04    -0.11  -0.16  -0.03
    11   6    -0.03  -0.00  -0.04     0.06  -0.00   0.10     0.05   0.01   0.13
    12   6    -0.03   0.01  -0.04     0.03   0.03   0.10     0.03  -0.03   0.11
    13   6    -0.03  -0.01  -0.01     0.00   0.15  -0.08    -0.02   0.01   0.03
    14   6    -0.03  -0.02   0.03     0.03   0.15  -0.08    -0.02  -0.06   0.01
    15   6    -0.04  -0.02   0.05    -0.06   0.03   0.08     0.08   0.01  -0.08
    16   6    -0.01  -0.00   0.03    -0.08   0.01   0.05     0.14   0.01  -0.10
    17   6    -0.00   0.00   0.03    -0.08  -0.01   0.05     0.13  -0.00  -0.10
    18   6     0.05  -0.00   0.02    -0.01  -0.02   0.01     0.01   0.07  -0.03
    19   6     0.02   0.01   0.01     0.01  -0.04  -0.05    -0.11   0.18  -0.01
    20   6    -0.01   0.02  -0.01     0.02   0.14  -0.10    -0.06   0.01  -0.01
    21   6    -0.00   0.03  -0.03    -0.02   0.18  -0.11    -0.07   0.11  -0.04
    22   6     0.02   0.01  -0.00    -0.00   0.06  -0.05    -0.11   0.18  -0.03
    23   6     0.06  -0.01   0.01     0.01   0.03   0.02    -0.01   0.07   0.03
    24   6     0.10  -0.01   0.02     0.00  -0.00   0.02     0.05   0.02   0.01
    25   6     0.10   0.01   0.02     0.00  -0.00   0.02     0.06  -0.01   0.01
    26   6     0.05   0.00   0.02    -0.02   0.02   0.01     0.03  -0.06  -0.03
    27   6     0.01  -0.01   0.01     0.01   0.04  -0.04    -0.10  -0.17  -0.01
    28   6    -0.02  -0.03   0.02     0.05   0.16  -0.09    -0.08  -0.13   0.02
    29   6    -0.03   0.00  -0.04     0.06   0.00   0.10     0.04  -0.01   0.13
    30   6    -0.02   0.00  -0.00     0.06  -0.16  -0.08    -0.08   0.10   0.00
    31   6    -0.01   0.01  -0.00     0.01  -0.05  -0.04    -0.13   0.18  -0.02
    32   6     0.01  -0.00   0.01    -0.01  -0.02   0.01    -0.01   0.07  -0.03
    33   6    -0.05   0.00   0.02    -0.08  -0.01   0.05     0.10  -0.01  -0.11
    34   6    -0.04   0.00   0.02    -0.06  -0.03   0.08     0.08  -0.02  -0.10
    35   6    -0.02  -0.02  -0.04     0.00  -0.15  -0.08    -0.01  -0.05  -0.01
    36   6    -0.00  -0.03  -0.02    -0.02  -0.17  -0.11    -0.06  -0.12  -0.04
    37   6    -0.01  -0.02  -0.01     0.02  -0.14  -0.10    -0.06  -0.02  -0.01
    38   6    -0.01  -0.02  -0.00     0.02   0.13  -0.10    -0.06  -0.03  -0.01
    39   6    -0.02   0.00  -0.01    -0.02   0.17  -0.10    -0.07   0.08  -0.03
    40   6    -0.01   0.01  -0.01    -0.00   0.06  -0.05    -0.13   0.18  -0.04
    41   6     0.01   0.00   0.01    -0.02   0.02   0.01     0.00  -0.06  -0.03
    42   6    -0.05  -0.00   0.02    -0.09   0.00   0.06     0.11   0.01  -0.10
    43   6    -0.04  -0.01   0.02    -0.06   0.03   0.08     0.08   0.02  -0.09
    44   6    -0.03  -0.00  -0.00    -0.06  -0.00   0.15     0.09  -0.00  -0.09
    45   6    -0.01  -0.00  -0.07    -0.02   0.00   0.17     0.05  -0.00   0.08
    46   6    -0.01  -0.02  -0.06     0.02  -0.03   0.10     0.04   0.01   0.10
    47   6     0.02  -0.01  -0.00    -0.00  -0.06  -0.05    -0.09  -0.17  -0.03
    48   6     0.05   0.01   0.01     0.01  -0.03   0.02     0.01  -0.05   0.04
    49   6     0.01  -0.00  -0.03     0.06  -0.01   0.09     0.08   0.01   0.14
    50   6     0.01   0.00  -0.03     0.05   0.01   0.09     0.07  -0.00   0.14
    51   6    -0.01   0.02  -0.06     0.02   0.04   0.10     0.04  -0.02   0.10
    52   6    -0.02   0.02  -0.04     0.00   0.15  -0.09    -0.01   0.03   0.00
    53   6    -0.02   0.01  -0.01     0.03   0.15  -0.08    -0.01  -0.03  -0.02
    54   6    -0.02  -0.00  -0.00     0.05   0.16  -0.08    -0.08  -0.11   0.01
    55   6    -0.02  -0.01  -0.00     0.01   0.04  -0.04    -0.11  -0.17  -0.01
    56   6     0.01  -0.00  -0.01     0.01   0.03   0.02    -0.03   0.07   0.02
    57   6     0.01   0.00  -0.01     0.01  -0.03   0.02    -0.01  -0.06   0.03
    58   6    -0.02  -0.01  -0.01     0.03  -0.15  -0.08    -0.01   0.02  -0.03
    59   6     0.07  -0.01   0.02     0.00  -0.00   0.02     0.05   0.01   0.01
    60   6     0.07   0.01   0.01    -0.00  -0.00   0.02     0.06  -0.00   0.01
    61   6     0.09  -0.02  -0.03    -0.00   0.00   0.00     0.08  -0.01   0.02
    62   6     0.08  -0.02  -0.03     0.00   0.00   0.00     0.07  -0.00   0.02
    63   6    -0.04   0.21   0.04     0.00  -0.01  -0.00    -0.01   0.03  -0.01
    64   1    -0.01   0.17   0.05     0.01  -0.01  -0.00    -0.01   0.05  -0.06
    65   1    -0.11   0.29   0.26     0.01  -0.00  -0.00    -0.07   0.01   0.06
    66   1    -0.09   0.45  -0.20    -0.00  -0.01   0.00    -0.04   0.06  -0.06
    67   6    -0.03  -0.19   0.03     0.00   0.01   0.00    -0.01  -0.02  -0.01
    68   1    -0.02  -0.35  -0.02     0.01   0.00   0.01    -0.01  -0.09  -0.06
    69   1    -0.02  -0.26  -0.00     0.01   0.01  -0.00    -0.04   0.02   0.02
    70   1    -0.14  -0.16   0.14    -0.00   0.01  -0.01    -0.07  -0.01  -0.02
    71   6     0.06   0.06   0.04     0.00  -0.00   0.00     0.03   0.02   0.02
    72   1     0.13   0.08   0.04     0.01  -0.00   0.00     0.07   0.01   0.03
    73   1     0.05   0.05   0.10     0.00  -0.00   0.00     0.00   0.02   0.01
    74   6     0.07  -0.05  -0.00     0.00  -0.00   0.00     0.03  -0.01   0.00
    75   1     0.08  -0.05   0.00     0.00  -0.00   0.01     0.01  -0.01  -0.01
    76   1     0.11  -0.01   0.02     0.01  -0.00   0.01     0.08   0.01   0.02
                     19                     20                     21
                      A                      A                      A
 Frequencies --    344.4499               350.9269               353.1067
 Red. masses --     11.7352                11.9233                11.9422
 Frc consts  --      0.8203                 0.8651                 0.8773
 IR Inten    --      0.0000                 0.0000                 0.0000
  Atom  AN      X      Y      Z        X      Y      Z        X      Y      Z
     1   6     0.04  -0.12  -0.12    -0.07   0.07   0.04     0.06  -0.07  -0.15
     2   6     0.03  -0.10  -0.11    -0.04  -0.09  -0.10     0.01  -0.05  -0.15
     3   6     0.02  -0.05  -0.05    -0.04  -0.09  -0.13    -0.03  -0.07  -0.14
     4   6    -0.00  -0.05  -0.00    -0.00  -0.05   0.01     0.00  -0.05  -0.01
     5   6    -0.01  -0.05   0.01    -0.00   0.04   0.01     0.00  -0.06  -0.02
     6   6     0.01  -0.06  -0.06    -0.07   0.08   0.08     0.09  -0.08  -0.13
     7   6     0.00  -0.08  -0.06    -0.09   0.12   0.05     0.01   0.10  -0.04
     8   6     0.02  -0.09  -0.02    -0.04   0.03  -0.00    -0.00   0.27   0.00
     9   6     0.06  -0.05  -0.03    -0.05  -0.10  -0.09     0.01   0.12  -0.03
    10   6     0.16   0.12   0.05    -0.05  -0.07  -0.09    -0.00   0.04   0.00
    11   6     0.03   0.02  -0.01    -0.05  -0.09  -0.11    -0.02  -0.06  -0.04
    12   6    -0.02  -0.05   0.04     0.04  -0.09   0.14     0.04  -0.07   0.13
    13   6    -0.03  -0.10   0.11     0.04  -0.08   0.10    -0.01  -0.05   0.14
    14   6    -0.04  -0.11   0.12     0.07   0.07  -0.04    -0.06  -0.06   0.14
    15   6    -0.03  -0.06   0.07     0.07   0.08  -0.07    -0.10  -0.08   0.11
    16   6     0.02   0.02   0.03     0.08   0.08  -0.06    -0.08  -0.08   0.05
    17   6    -0.03   0.02  -0.02    -0.08   0.07   0.06     0.06  -0.07  -0.04
    18   6    -0.14   0.09  -0.00    -0.12   0.07   0.06     0.08  -0.04  -0.01
    19   6    -0.12   0.08  -0.02    -0.09   0.08   0.06     0.02   0.03  -0.01
    20   6     0.01  -0.09   0.02     0.04   0.03   0.01    -0.01   0.27  -0.01
    21   6    -0.03  -0.07   0.04     0.05  -0.10   0.09    -0.02   0.13   0.02
    22   6    -0.13   0.09  -0.05     0.05  -0.06   0.10     0.00   0.04   0.00
    23   6    -0.14   0.10  -0.07     0.08  -0.07   0.11     0.06  -0.03   0.04
    24   6    -0.12   0.11  -0.03    -0.01   0.00   0.05     0.05  -0.03   0.01
    25   6     0.12   0.11   0.03     0.01   0.00  -0.05    -0.06  -0.03  -0.00
    26   6     0.14   0.10   0.00     0.13   0.07  -0.06    -0.10  -0.05   0.02
    27   6     0.14   0.10   0.02     0.10   0.08  -0.07    -0.02   0.02   0.02
    28   6     0.01  -0.07   0.06     0.09   0.12  -0.05    -0.01   0.10   0.04
    29   6    -0.04   0.03  -0.01     0.05  -0.09   0.10     0.04  -0.06   0.06
    30   6    -0.02  -0.07  -0.06    -0.09   0.11   0.04     0.02   0.10  -0.04
    31   6    -0.14   0.09  -0.02    -0.09   0.08   0.06     0.02   0.02  -0.01
    32   6    -0.12   0.09   0.00    -0.10   0.07   0.07     0.07  -0.03  -0.01
    33   6    -0.03   0.02  -0.02    -0.07   0.07   0.06     0.06  -0.08  -0.05
    34   6     0.01  -0.06  -0.05    -0.07   0.07   0.08     0.10  -0.09  -0.13
    35   6     0.02  -0.10  -0.11    -0.05  -0.10  -0.12     0.02  -0.05  -0.14
    36   6     0.04  -0.06  -0.04    -0.05  -0.11  -0.10     0.02   0.13  -0.02
    37   6    -0.00  -0.09  -0.02    -0.04   0.02  -0.02     0.01   0.27   0.01
    38   6    -0.01  -0.09   0.02     0.04   0.03   0.00     0.00   0.27  -0.01
    39   6    -0.05  -0.05   0.03     0.05  -0.09   0.08    -0.01   0.12   0.03
    40   6    -0.14   0.10  -0.05     0.05  -0.06   0.09     0.01   0.04   0.00
    41   6     0.13   0.10  -0.00     0.11   0.08  -0.07    -0.09  -0.04   0.02
    42   6     0.02   0.02   0.03     0.08   0.07  -0.06    -0.08  -0.08   0.05
    43   6    -0.02  -0.06   0.06     0.07   0.07  -0.07    -0.10  -0.09   0.12
    44   6    -0.01  -0.05   0.01    -0.00   0.03   0.01     0.00  -0.06  -0.01
    45   6    -0.00  -0.05  -0.00    -0.00  -0.06   0.01     0.00  -0.05  -0.01
    46   6     0.01  -0.05  -0.06    -0.04  -0.10  -0.14    -0.02  -0.07  -0.13
    47   6     0.14   0.11   0.05    -0.05  -0.07  -0.10     0.00   0.04   0.01
    48   6     0.14   0.10   0.07    -0.09  -0.07  -0.11    -0.05  -0.02  -0.02
    49   6     0.03   0.03  -0.01    -0.06  -0.09  -0.11    -0.02  -0.06  -0.04
    50   6    -0.04   0.03  -0.01     0.05  -0.09   0.10     0.04  -0.06   0.06
    51   6    -0.01  -0.05   0.05     0.04  -0.10   0.14     0.03  -0.06   0.12
    52   6    -0.02  -0.10   0.12     0.04  -0.09   0.12    -0.02  -0.04   0.13
    53   6    -0.02  -0.10   0.12     0.07   0.06  -0.03    -0.07  -0.07   0.14
    54   6     0.03  -0.05   0.06     0.09   0.12  -0.04    -0.02   0.09   0.04
    55   6     0.15   0.11   0.02     0.10   0.09  -0.06    -0.03   0.02   0.01
    56   6    -0.13   0.10  -0.07     0.07  -0.07   0.11     0.05  -0.03   0.03
    57   6     0.13   0.10   0.07    -0.08  -0.07  -0.11    -0.04  -0.02  -0.02
    58   6     0.02  -0.11  -0.11    -0.07   0.06   0.03     0.07  -0.07  -0.15
    59   6    -0.13   0.11  -0.03    -0.01   0.00   0.05     0.04  -0.02   0.01
    60   6     0.12   0.11   0.03     0.01   0.00  -0.05    -0.04  -0.02   0.00
    61   6     0.00   0.02  -0.01     0.00   0.00   0.00    -0.01  -0.01   0.01
    62   6    -0.01   0.01   0.01    -0.00   0.00  -0.00     0.00  -0.01  -0.00
    63   6     0.00   0.02  -0.01    -0.01  -0.00  -0.00    -0.00  -0.01   0.01
    64   1     0.01   0.01  -0.01     0.01  -0.01  -0.02    -0.00  -0.01   0.01
    65   1     0.01   0.03  -0.00    -0.00   0.01   0.00     0.00  -0.01   0.00
    66   1    -0.00   0.02  -0.02    -0.02  -0.01  -0.01     0.00  -0.01   0.01
    67   6    -0.00   0.01   0.01     0.01  -0.01   0.01    -0.00  -0.00  -0.01
    68   1     0.01  -0.03   0.05     0.01  -0.04   0.04    -0.01   0.02  -0.03
    69   1     0.04   0.03   0.01     0.04   0.01  -0.00    -0.02  -0.02  -0.00
    70   1    -0.05   0.01  -0.01    -0.03  -0.00  -0.00     0.02  -0.01   0.00
    71   6     0.01   0.01   0.01     0.00   0.00  -0.00    -0.00  -0.01  -0.00
    72   1    -0.08   0.03  -0.01     0.02   0.00  -0.00     0.03  -0.01   0.00
    73   1    -0.01   0.02   0.02     0.00   0.00  -0.00    -0.00  -0.01  -0.00
    74   6    -0.02   0.01  -0.02    -0.00   0.00   0.00     0.00  -0.00   0.01
    75   1     0.01   0.02  -0.01    -0.00   0.00   0.00     0.00  -0.00   0.00
    76   1     0.07   0.03   0.01    -0.01   0.00   0.00    -0.03  -0.01  -0.00
                     22                     23                     24
                      A                      A                      A
 Frequencies --    357.9684               400.1002               404.1646
 Red. masses --     11.8495                 6.8156                11.8948
 Frc consts  --      0.8946                 0.6428                 1.1448
 IR Inten    --      0.0000                 0.0000                 0.0000
  Atom  AN      X      Y      Z        X      Y      Z        X      Y      Z
     1   6    -0.01   0.03   0.06     0.00   0.01   0.05     0.19   0.02   0.06
     2   6    -0.02   0.04   0.06     0.00   0.05   0.12     0.20  -0.02   0.03
     3   6    -0.07   0.01   0.06    -0.02   0.00   0.07     0.12  -0.09  -0.01
     4   6    -0.06  -0.00   0.21    -0.04  -0.00   0.05     0.01  -0.04  -0.01
     5   6    -0.06  -0.00   0.23    -0.02  -0.00  -0.05     0.01   0.03   0.01
     6   6     0.02   0.01   0.09    -0.00  -0.01  -0.07     0.11   0.07   0.04
     7   6     0.01  -0.02   0.01     0.04  -0.03   0.03     0.12   0.01   0.07
     8   6    -0.00   0.00   0.02     0.04   0.00   0.07     0.07   0.01   0.03
     9   6    -0.01  -0.01   0.01     0.03   0.03   0.10     0.13   0.01   0.01
    10   6    -0.04  -0.03  -0.06    -0.01  -0.02   0.01     0.07  -0.02  -0.04
    11   6    -0.16  -0.03  -0.14    -0.04  -0.01  -0.02     0.07  -0.13  -0.04
    12   6    -0.07  -0.01   0.06    -0.02  -0.01   0.07    -0.09  -0.08  -0.00
    13   6    -0.02  -0.03   0.07    -0.01  -0.05   0.12    -0.19  -0.01  -0.05
    14   6    -0.02  -0.04   0.08    -0.01  -0.01   0.04    -0.19   0.03  -0.06
    15   6     0.01  -0.02   0.11    -0.01   0.01  -0.07    -0.11   0.08  -0.03
    16   6     0.18   0.02  -0.05    -0.01   0.01  -0.09    -0.06   0.12  -0.03
    17   6     0.20  -0.03  -0.05    -0.00  -0.00  -0.08     0.06   0.12   0.05
    18   6     0.17  -0.07  -0.06    -0.05  -0.00  -0.06     0.05   0.06   0.05
    19   6     0.07  -0.04  -0.05     0.05  -0.05   0.01     0.06   0.03   0.07
    20   6    -0.01   0.03   0.02     0.04   0.03   0.06    -0.10  -0.02  -0.01
    21   6    -0.01   0.03   0.00     0.04   0.01   0.06    -0.15  -0.01  -0.00
    22   6    -0.04   0.04  -0.07     0.05  -0.03   0.04    -0.09  -0.02   0.03
    23   6    -0.12   0.06  -0.12    -0.01   0.02  -0.01    -0.05  -0.06   0.02
    24   6     0.02  -0.00  -0.08    -0.12   0.01  -0.08     0.00   0.00   0.04
    25   6     0.00  -0.00  -0.08    -0.12  -0.01  -0.09     0.02   0.01  -0.04
    26   6     0.14   0.06  -0.06    -0.05   0.00  -0.07    -0.05   0.07  -0.04
    27   6     0.06   0.04  -0.04     0.05   0.05  -0.00    -0.08   0.03  -0.07
    28   6     0.01   0.03   0.01     0.03   0.04   0.02    -0.14   0.01  -0.06
    29   6    -0.16   0.02  -0.14    -0.04   0.00  -0.01    -0.04  -0.14   0.03
    30   6     0.02  -0.03   0.00     0.04  -0.08  -0.01     0.12  -0.02   0.06
    31   6     0.06  -0.04  -0.04    -0.01  -0.01   0.01     0.05   0.03   0.07
    32   6     0.14  -0.06  -0.07    -0.05  -0.00  -0.05     0.01   0.08   0.06
    33   6     0.21  -0.03  -0.06    -0.10  -0.00  -0.05     0.04   0.14   0.06
    34   6     0.05  -0.00   0.07    -0.04  -0.03  -0.08     0.10   0.08   0.06
    35   6    -0.01   0.04   0.07     0.02  -0.06   0.01     0.20  -0.03   0.03
    36   6    -0.01  -0.01   0.01     0.05  -0.01   0.06     0.13  -0.01  -0.00
    37   6    -0.00   0.00   0.02     0.04  -0.03   0.06     0.08  -0.02   0.01
    38   6    -0.00   0.03   0.02     0.03  -0.00   0.07    -0.10   0.02  -0.03
    39   6    -0.01   0.04   0.00     0.02  -0.03   0.11    -0.15   0.02  -0.02
    40   6    -0.03   0.04  -0.06    -0.01   0.01   0.02    -0.07  -0.03   0.04
    41   6     0.12   0.05  -0.06    -0.05   0.00  -0.06    -0.01   0.09  -0.06
    42   6     0.19   0.02  -0.06    -0.11   0.00  -0.05    -0.03   0.14  -0.05
    43   6     0.03  -0.01   0.09    -0.05   0.04  -0.08    -0.09   0.08  -0.04
    44   6    -0.03  -0.00   0.21    -0.03  -0.00  -0.08     0.01   0.02   0.01
    45   6    -0.04  -0.00   0.24    -0.02  -0.00  -0.00     0.01  -0.04  -0.00
    46   6    -0.05   0.02   0.09     0.02  -0.02   0.05     0.12  -0.08   0.01
    47   6    -0.04  -0.03  -0.06     0.06   0.03   0.03     0.08  -0.02  -0.04
    48   6    -0.12  -0.06  -0.12    -0.01  -0.02  -0.02     0.06  -0.05  -0.02
    49   6    -0.15  -0.02  -0.12     0.04  -0.00   0.04     0.07  -0.12  -0.02
    50   6    -0.15   0.02  -0.12     0.03   0.00   0.04    -0.06  -0.12   0.01
    51   6    -0.05  -0.02   0.09     0.01   0.02   0.05    -0.10  -0.09  -0.02
    52   6    -0.01  -0.04   0.08     0.01   0.06   0.01    -0.19  -0.04  -0.03
    53   6    -0.01  -0.04   0.07     0.02   0.10  -0.06    -0.20   0.00  -0.04
    54   6     0.01   0.03   0.01     0.03   0.08  -0.02    -0.15  -0.02  -0.04
    55   6     0.05   0.04  -0.04    -0.02   0.01  -0.01    -0.06   0.04  -0.07
    56   6    -0.09   0.05  -0.11    -0.03   0.03  -0.03    -0.02  -0.08   0.04
    57   6    -0.10  -0.06  -0.11    -0.02  -0.03  -0.03     0.03  -0.07  -0.05
    58   6     0.00   0.03   0.05     0.03  -0.10  -0.05     0.19   0.01   0.06
    59   6     0.02  -0.00  -0.07     0.04  -0.01  -0.05    -0.01   0.00   0.05
    60   6     0.01  -0.00  -0.07     0.04   0.01  -0.06     0.00   0.00  -0.06
    61   6     0.01  -0.00  -0.00     0.25  -0.02   0.09    -0.01  -0.01  -0.00
    62   6     0.01  -0.00  -0.00     0.23  -0.01   0.10    -0.02  -0.01  -0.00
    63   6    -0.00   0.01  -0.00    -0.04   0.02  -0.03    -0.00   0.00   0.01
    64   1    -0.01   0.03  -0.01    -0.02   0.10  -0.24    -0.02   0.01   0.03
    65   1    -0.02   0.00   0.01    -0.23  -0.05   0.19    -0.01   0.00   0.01
    66   1     0.00   0.03  -0.02    -0.15   0.08  -0.14     0.01   0.02  -0.01
    67   6    -0.01  -0.01  -0.01    -0.03   0.00  -0.02     0.01   0.02  -0.00
    68   1    -0.02   0.01  -0.06    -0.03  -0.18  -0.20     0.01   0.04   0.02
    69   1    -0.06  -0.04   0.00    -0.13   0.19   0.08     0.02   0.03  -0.01
    70   1     0.02  -0.02   0.02    -0.21   0.03  -0.11     0.02   0.01  -0.03
[...]
 02716,-0.00000258,0.00005148,0.00003514,-0.00000462,-0.00005507,-0.000
 19662,0.00006599,0.00009737,-0.00015056,-0.00010234,0.00008439,0.00014
 878,-0.00001610,-0.00011158,-0.00007128,-0.00008835,-0.00000200,0.0002
 4223,-0.00045852,-0.00031485,0.00011317,0.00003586,0.00043227,-0.00057
 850,0.00069441,-0.00057524,0.00140912,0.00013764,-0.00004760,0.0065266
 6,0.00075159,-0.00098403,0.00033442,0.00049913,-0.00015019,-0.00733150
 ,0.00658517,-0.00084579,-0.01053221,-0.00813304,-0.01162448,0.12401417
 ,-0.08264767,-0.23984385,-0.00623827,-0.03594741,0.01566710,0.01670234
 ,-0.00825699,-0.02553881,0.00310014,-0.00066231,0.00058391,-0.00129465
 ,-0.00163382,-0.00048792,0.00257712,0.00183019,-0.00528460,0.00079370,
 0.00046018,0.00129842,0.00035031,0.00012085,-0.00021835,-0.00015250,0.
 00114347,-0.00030965,0.00015940,0.00095148,0.00013688,0.01398899,0.002
 03373,-0.01239280,-0.00167727,0.00494004,0.00174721,-0.00016854,0.0010
 9452,-0.00013351,-0.18952357,0.00404983,0.63870916,-0.00001850,0.00001
 374,-0.00002201,-0.00029056,0.00011275,0.00011419,0.00025351,-0.000156
 98,0.00001661,0.00005422,0.00002488,-0.00006736,0.00001012,-0.00002135
 ,0.00001034,-0.00002962,0.00001898,-0.00002121,0.00001246,-0.00002488,
 0.00001724,-0.00016324,0.00007458,-0.00001700,0.00036455,-0.00005007,0
 .00005979,-0.00093261,-0.00033324,-0.00071650,0.00048169,0.00039854,-0
 .00046912,0.00009545,0.00010614,-0.00001843,-0.00003785,-0.00004948,-0
 .00000561,0.00004375,-0.00000826,-0.00000196,-0.00001553,0.00000489,0.
 00000487,0.00001295,-0.00001950,0.00000631,0.00001156,-0.00000131,0.00
 001174,-0.00000517,-0.00000506,-0.00001424,-0.00001007,-0.00000721,0.0
 0001212,-0.00018525,0.00009767,-0.00004747,0.00000050,-0.00002218,-0.0
 0001610,-0.00000218,-0.00000843,-0.00001363,-0.00000067,-0.00000528,0.
 00000422,-0.00000249,-0.00000392,-0.00000349,0.00000578,-0.00001994,-0
 .00000179,-0.00000151,-0.00001118,-0.00000960,0.00001035,-0.00001029,0
 .00000428,0.00000614,-0.00001052,-0.00001433,-0.00004711,0.00005566,0.
 00002296,0.00002118,0.00000024,0.00002402,-0.00001915,0.00001049,0.000
 00186,-0.00019295,-0.00013023,0.00024738,-0.00001188,0.00005662,0.0000
 1424,0.00003638,0.00002664,0.00000570,0.00004207,-0.00000400,0.0000142
 7,0.00000840,-0.00000904,0.00000579,0.00000191,-0.00001094,0.00000179,
 0.00000823,-0.00000357,-0.00000252,0.00002136,-0.00000438,-0.00000687,
 -0.00001053,0.00003040,0.00001165,0.00006298,-0.00049664,0.00033587,0.
 00012260,0.00022804,0.00024119,0.00013829,-0.00014304,0.00001677,-0.00
 001367,0.00002345,0.00002954,0.00000976,-0.00002118,-0.00000064,-0.000
 00319,0.00000984,-0.00001332,0.00001399,-0.00000699,-0.00000649,0.0000
 0610,-0.00000854,0.00000148,0.00001529,-0.00002026,-0.00000828,0.00001
 455,0.00000088,-0.00000992,-0.00002567,0.00001745,0.00001013,-0.000024
 97,0.00001849,-0.00000062,-0.00028172,0.00012255,-0.00027994,0.0001845
 4,-0.00003946,0.00010299,-0.00034799,-0.00036308,0.00035226,-0.0000870
 9,-0.00007662,-0.00024740,-0.00004575,-0.00079211,-0.00001778,-0.00004
 014,-0.00003815,-0.00001460,-0.00085463,-0.00026918,-0.00015633,-0.000
 61305,-0.00408145,-0.00034754,0.00032891,0.01763726,-0.00314370,0.0044
 9700,0.00118723,0.00652736,-0.00304565,-0.00113580,-0.00071315,-0.0000
 4465,0.00034027,-0.00029064,0.00073038,0.00004954,-0.00058800,0.000118
 05,0.00026216,-0.00069014,0.00036239,0.00057421,-0.00043120,0.00008961
 ,0.00022176,-0.00005201,-0.00007214,0.00017250,-0.00017148,-0.00021921
 ,0.00020919,0.00019693,-0.00065703,-0.00122958,0.00014960,0.00053039,-
 0.00092008,0.00009781,0.00004061,0.00008454,-0.00019471,-0.03689689,0.
 01787713,0.00532857,0.03485914,-0.00002852,0.00000350,-0.00001470,-0.0
 0005726,0.00004571,0.00000021,0.00017580,0.00001441,-0.00002744,0.0000
 2944,-0.00002362,-0.00002181,0.00002463,-0.00001276,-0.00000150,0.0000
 1995,0.00002782,-0.00000991,0.00000930,-0.00000734,0.00003173,0.000068
 81,-0.00001852,-0.00001982,-0.00016723,-0.00009991,0.00003694,-0.00059
 354,0.00043885,0.00003171,0.00019984,0.00002475,-0.00026581,0.00000944
 ,0.00005695,-0.00001666,-0.00000579,0.00000213,0.00001159,0.00001373,0
 .00001152,-0.00000044,-0.00000468,-0.00000005,0.00000043,0.00000325,0.
 00001437,0.00000882,0.00001220,0.00000104,0.00000963,0.00000087,-0.000
 00067,0.00000204,0.00002509,0.00000362,0.00002517,0.00004718,-0.000022
 89,0.00004387,0.00002718,-0.00000663,-0.00001957,0.00003605,0.00000983
 ,-0.00000916,0.00000346,0.00000304,-0.00000354,-0.00000642,0.00002010,
 -0.00000028,0.00000318,-0.00000137,0.00000260,-0.00000667,0.00000045,0
 .00000470,-0.00000608,-0.00001173,0.00000206,0.00000849,0.00000081,-0.
 00000503,-0.00009533,-0.00009514,0.00005623,0.00003661,0.00001316,0.00
 004734,-0.00002518,0.00000079,-0.00000084,0.00034121,0.00022063,0.0002
 6269,-0.00009553,-0.00014064,-0.00006060,-0.00001290,0.00004561,0.0000
 0031,0.00001473,0.00001786,0.00000323,0.00000864,0.,0.00000408,-0.0000
 1103,-0.00000645,-0.00000187,-0.00000716,-0.00000200,-0.00000389,0.000
 03825,0.00001120,-0.00002460,0.00000376,0.00001889,-0.00000872,-0.0007
 8303,-0.00075949,-0.00057270,0.00023016,-0.00009758,0.00032029,0.00003
 240,0.00004520,0.00002668,0.00001399,-0.00002191,0.00003138,0.00002358
 ,-0.00001183,0.00001153,-0.00000142,0.00001217,-0.00001190,-0.00000630
 ,-0.00000773,-0.00000809,-0.00000250,0.00000519,-0.00001081,0.00000761
 ,0.00001747,-0.00000984,0.00001233,0.00000082,0.00000016,0.00001528,0.
 00004055,0.00003017,-0.00004142,0.00000781,0.00000089,-0.00006621,0.00
 004332,-0.00004486,-0.00013200,-0.00009026,-0.00009186,-0.00080676,0.0
 0053940,-0.00046359,0.00012337,0.00014293,-0.00019269,-0.00078260,-0.0
 0084907,0.00041212,0.00000400,0.00001765,-0.00002610,-0.00019694,0.000
 71851,-0.00006951,0.00199423,-0.00039048,-0.00018918,-0.00083883,-0.01
 645139,-0.00198864,0.00287108,-0.00177759,-0.00047478,0.00037122,0.000
 13480,-0.00186936,0.00045451,0.00078675,0.00084702,-0.00101315,0.00110
 207,-0.00141620,0.00015094,-0.00130502,0.00049851,-0.00028798,0.000176
 80,0.00087953,-0.00042386,0.00009453,0.00038731,-0.00013239,0.00014712
 ,0.00074907,0.00015539,0.00030767,-0.00030417,0.00086739,-0.00249792,-
 0.00145866,0.00030399,0.00021036,-0.00148819,-0.00010344,0.00085252,0.
 00020823,0.02389229,-0.34243114,0.01485810,-0.02582069,0.36696382,0.00
 003295,0.00001469,0.00000817,0.00007725,0.00001963,-0.00005421,-0.0000
 0567,0.00002684,-0.00005376,-0.00000646,0.00001289,0.00001528,-0.00000
 174,0.00001986,-0.00000866,-0.00000318,0.00000631,-0.00001838,-0.00001
 330,0.00000242,-0.00003629,-0.00007116,0.00002486,0.00000412,0.0000800
 0,-0.00001966,-0.00006088,0.00019039,0.00009589,-0.00011066,-0.0005085
 6,-0.00011611,0.00020132,-0.00005014,-0.00002953,0.00003050,0.00000387
 ,0.00001378,0.00000111,0.00000612,0.00001209,0.00000695,0.00000094,0.0
 0001455,0.00001590,-0.00000334,0.00000123,0.00000564,0.00000283,0.0000
 0682,-0.00000389,0.00000089,0.00000462,-0.00001205,0.00000677,0.000004
 18,-0.00001487,-0.00003739,0.00001988,-0.00000612,0.00002078,-0.000010
 49,-0.00002327,-0.00000115,-0.00001067,-0.00002407,0.00000143,-0.00000
 962,-0.00000319,-0.00000098,-0.00000220,0.00000834,0.00000133,-0.00000
 657,-0.00000009,0.00000546,0.00000617,0.00000147,0.00000384,0.00000418
 ,0.00001541,0.00000208,0.00000533,0.00001850,-0.00005124,-0.00007086,0
 .00001836,0.00001233,0.00000251,0.00001915,0.00000355,0.00002013,0.000
 01972,0.00006491,-0.00018854,-0.00001383,-0.00001026,-0.00001980,0.000
 05442,0.00002361,0.00002713,0.00004920,0.00001047,-0.00001592,0.000015
 75,-0.00000161,-0.00001056,0.00002361,0.00000399,0.00000135,0.00001873
 ,0.00000231,0.00000183,0.00001512,0.00001326,0.00001287,0.00000475,-0.
 00002214,0.00000045,-0.00001682,-0.00063120,-0.00089479,-0.00018260,-0
 .00023213,-0.00005455,-0.00040964,-0.00001242,-0.00009449,-0.00008878,
 0.00000596,-0.00000484,0.00004732,-0.00000287,-0.00002674,-0.00000659,
 -0.00000292,-0.00000968,0.00000151,-0.00000008,-0.00000614,0.00001053,
 -0.00000423,-0.00001348,0.00000655,0.00000449,-0.00001163,0.00000559,0
 .00000339,-0.00001011,-0.00000691,-0.00000797,-0.00000230,-0.00000995,
 -0.00003423,-0.00001647,-0.00001246,-0.00017572,0.00004344,-0.00022642
 ,0.00021952,-0.00002697,0.00000119,-0.00014292,-0.00024641,0.00036483,
 -0.00025233,-0.00009653,-0.00002243,-0.00052241,-0.00009606,-0.0000101
 2,-0.00001440,-0.00002877,0.00000721,-0.00045619,-0.00017179,-0.000243
 41,0.00035841,-0.00166408,-0.00001339,-0.00005145,-0.02445893,0.002917
 36,0.00584740,-0.00095371,-0.00208789,-0.00017889,-0.00080065,-0.00368
 364,-0.00019353,-0.00053381,0.00144781,-0.00128939,0.00010578,0.000293
 26,0.00090061,-0.00071426,-0.00010300,-0.00006009,-0.00069892,0.000364
 73,-0.00014531,-0.00009097,0.00020788,-0.00017490,-0.00003259,0.000278
 27,0.00003835,-0.00015968,-0.00022522,-0.00007149,-0.00019883,-0.00012
 643,-0.00006125,0.00025735,0.00167063,-0.00019723,-0.00019213,0.000112
 10,0.00694213,0.01427271,-0.06144824,-0.00789871,-0.01337856,0.0612025
 0,-0.00006106,-0.00000650,-0.00000834,-0.00028578,0.00005253,0.0001379
 9,0.00107646,-0.00005524,-0.00053939,0.00024066,-0.00010070,-0.0000602
 1,-0.00002187,0.00000767,-0.00000007,0.00004560,0.00000698,0.00000672,
 0.00001749,0.00001294,0.00001524,0.00018053,-0.00009960,0.00006667,0.0
 0041953,-0.00026222,-0.00017214,-0.00084665,0.00073463,-0.00043168,-0.
 00063231,0.00036891,-0.00049378,-0.00031431,-0.00000790,-0.00007459,0.
 00008934,0.00019988,0.00010078,-0.00007176,0.00002170,0.00000037,0.000
 03651,-0.00000395,0.00001949,-0.00004486,0.00004431,-0.00004128,-0.000
 03172,-0.00002698,-0.00004118,0.00000708,-0.00000705,0.00000671,0.0000
 1802,0.00000914,-0.00001517,-0.00000714,-0.00000011,-0.00000814,-0.000
 03115,-0.00000167,-0.00002329,0.00002903,0.00001593,0.00000962,0.00001
 602,-0.00001675,-0.00004898,0.00000321,-0.00001354,-0.00001003,-0.0000
 0653,0.00002802,-0.00001285,-0.00000167,0.00001868,0.00001114,-0.00000
 290,0.00000122,-0.00001151,0.00000512,-0.00000279,-0.00000004,0.000000
 25,0.00047233,0.00007217,0.00008133,0.00002702,0.00014825,0.00011704,0
 .00021801,0.00021990,-0.00013737,0.00041732,0.00093157,0.00002985,0.00
 034876,0.00021422,-0.00019617,-0.00005881,-0.00010727,-0.00004458,0.00
 001966,-0.00002611,0.00000664,0.00000304,-0.00001220,0.00000873,0.0000
 1665,-0.00000716,-0.00000282,0.00000328,0.00001616,0.00018925,0.000114
 56,-0.00005559,0.00008512,0.00008039,-0.00000946,-0.00067678,-0.002064
 22,0.00179493,-0.00004212,-0.00030193,-0.00037495,0.00003441,0.0000410
 5,0.00012597,0.00001573,-0.00006730,-0.00007211,-0.00003109,0.00002286
 ,0.00000498,0.00005286,0.00000068,0.00000077,-0.00000625,0.00000537,-0
 .00000114,0.00001407,0.00001021,-0.00002987,-0.00003495,0.00002982,0.0
 0000867,-0.00003359,-0.00001306,0.00002800,0.00005042,-0.00001151,-0.0
 0002973,0.00002304,-0.00002223,-0.00000289,-0.00003869,-0.00003458,-0.
 00018450,0.00017145,-0.00015654,0.00038410,-0.00020775,0.00066696,0.00
 005700,-0.00008446,0.00007426,-0.00083018,-0.00085906,-0.00249860,-0.0
 0175741,0.00007923,0.00011134,-0.00003810,-0.00344012,0.00413821,-0.00
 181488,-0.01436531,-0.00358038,-0.00778577,-0.00898487,0.00056680,0.02
 132167,-0.00279659,-0.00530173,0.00073372,0.00491818,0.00406167,0.0025
 5872,0.00095343,0.00070266,-0.00093305,0.00038346,-0.00030921,-0.00076
 397,-0.00013649,0.00013444,0.00084497,-0.00000157,-0.00083236,-0.00095
 375,-0.00006385,-0.00010325,0.00002944,0.00005806,-0.00007129,-0.00029
 635,0.00012194,-0.00015573,-0.00006967,0.00315100,0.00062894,-0.001152
 29,0.00086967,0.00098678,0.00083956,0.00044587,-0.00028929,0.00002098,
 -0.02419097,-0.01629086,0.04677178,0.00162313,-0.00012195,-0.00128905,
 0.04306640,0.00000657,-0.00001127,0.00002135,0.00007151,-0.00009375,0.
 00004095,-0.00002622,-0.00013738,-0.00001617,0.00004760,-0.00002119,-0
 .00001463,-0.00000310,-0.00002705,0.00000323,0.00000852,-0.00003036,0.
 00002100,-0.00003512,0.00000001,-0.00000459,-0.00006814,0.00004076,0.0
 0001043,0.00007029,0.00004289,-0.00006494,0.00021826,0.00004638,0.0001
 2698,-0.00092074,-0.00007121,0.00056230,-0.00008422,-0.00014790,-0.000
 06896,0.00001835,0.00003678,0.00003482,-0.00001759,-0.00001164,-0.0000
 1989,-0.00000315,-0.00002323,-0.00001172,-0.00001140,0.00000078,-0.000
 01713,0.00000198,-0.00000677,-0.00000238,-0.00000455,-0.00001254,0.000
 00819,0.00000944,-0.00000968,0.00000904,-0.00002444,0.00002217,0.00001
 236,0.00001956,0.00000225,0.00001180,0.00000546,-0.00000015,0.00001611
 ,0.00000748,0.00000769,-0.00000130,-0.00000395,0.00000163,-0.00000070,
 0.00000388,0.00000945,-0.00000107,-0.00000028,-0.00000734,-0.00000256,
 -0.00000499,-0.00001249,-0.00001323,0.00000720,0.00000066,-0.00000373,
 -0.00011875,-0.00008952,0.00003983,0.00005481,0.00003321,0.00005559,0.
 00013921,0.00014916,0.00014394,0.00027790,0.00043365,0.00110560,0.0000
 7523,0.00001592,0.00036103,-0.00001222,0.00002709,0.00000956,-0.000013
 34,0.00002019,-0.00001044,0.00000353,0.00000810,-0.00001748,0.00000843
 ,0.,-0.00001854,0.00001145,0.00001039,-0.00001040,0.00012725,0.0000684
 6,-0.00002070,0.00024472,0.00005909,-0.00001636,-0.00071663,-0.0007771
 3,-0.00052370,-0.00025734,-0.00007102,-0.00060737,0.00000077,0.0000082
 1,-0.00000216,-0.00000277,0.00000807,-0.00001232,0.00000808,0.00001413
 ,0.00001032,0.00000425,0.00000623,-0.00001134,-0.00000520,0.00000286,-
 0.00001496,0.00000306,0.00001094,-0.00000904,-0.00000725,0.00002238,-0
 .00000537,-0.00000094,0.00000899,0.00000887,0.00001454,0.00001238,0.00
 001587,-0.00001407,0.00000913,0.00000433,0.00000491,-0.00001526,-0.000
 03377,0.00004145,-0.00000439,-0.00001036,-0.00023520,0.00009047,0.0001
 3527,0.00035901,0.00032062,-0.00085983,-0.00108990,-0.00017903,-0.0001
 3427,0.00001966,0.00001560,-0.00000280,-0.00255826,0.00099200,-0.00225
 392,0.00009962,-0.00259266,0.00047531,0.00045699,0.01098211,-0.0110777
 5,-0.00159021,0.00061877,0.00079406,0.00296775,-0.00158864,-0.00139949
 ,0.00057826,-0.00087198,-0.00039134,0.00024438,-0.00057874,-0.00054715
 ,0.00016725,0.00046952,-0.00044176,-0.00007051,0.00122966,0.00111810,0
 .00000925,0.00019537,-0.00027646,0.00010048,0.00001833,-0.00013754,0.0
 0093413,-0.00093019,-0.00163122,-0.00119199,-0.00472560,-0.00634835,-0
 .00022694,-0.00548931,0.00464289,0.00080541,-0.00081599,0.00029948,-0.
 01272811,-0.10013163,0.09773240,-0.00367461,-0.00623338,0.03113762,0.0
 1746425,0.10964597,-0.00008126,0.00000067,-0.00000643,0.00001796,-0.00
 014615,0.00011176,-0.00021669,0.00004724,-0.00004941,0.00004262,-0.000
 00452,0.00002214,0.00003485,-0.00000497,0.00001570,0.00004447,0.000014
 77,-0.00000512,-0.00000831,-0.00002432,0.00003662,0.00010091,-0.000039
 05,0.00004487,0.00016120,-0.00011577,-0.00011156,-0.00031800,0.0006179
 5,-0.00000929,-0.00010891,-0.00001894,0.00039653,-0.00011411,-0.000060
 86,-0.00005403,0.00006162,0.00017069,0.00008311,-0.00005205,-0.0000027
 4,-0.00002345,0.00003942,-0.00002041,0.00001097,-0.00002441,0.00002866
 ,-0.00001610,-0.00002745,-0.00002539,-0.00002994,0.00000963,-0.0000110
 5,0.00003573,0.00002583,0.00001821,0.00000634,0.00007011,-0.00001810,-
 0.00000642,-0.00004306,-0.00000158,-0.00001568,0.00001701,0.00000797,0
 .00000468,-0.00000016,-0.00000854,-0.00001626,0.00000039,-0.00000739,-
 0.00000913,-0.00001012,0.00002310,-0.00001286,0.00000078,0.00000588,0.
 00001796,0.00000667,-0.00001490,-0.00000441,0.00002525,0.00000290,0.00
 002362,0.00066887,0.00036865,-0.00014200,0.00007680,0.00002594,0.00009
 724,0.00005079,0.00007795,0.00007177,0.00085687,0.00027729,0.00100118,
 -0.00006118,0.00008403,0.00003793,-0.00015889,-0.00007302,-0.00007162,
 -0.00007571,0.00001601,-0.00002613,0.00002128,0.00001189,-0.00002408,0
 .00003944,0.00002214,-0.00001539,0.00000769,0.00000552,0.00001671,0.00
 014204,0.00002131,-0.00011581,-0.00000591,-0.00008160,-0.00011591,-0.0
 0084950,-0.00103531,0.00065018,0.00023925,0.00016392,-0.00003713,0.000
 03440,0.00005637,0.00011446,0.00000707,-0.00002177,-0.00003776,-0.0000
 0556,0.00001893,-0.00000922,0.00003861,-0.00001922,0.00000045,0.000000
 37,-0.00000778,-0.00001373,-0.00000357,0.00000702,-0.00002715,-0.00002
 554,0.00003905,0.00001201,-0.00001902,-0.00001154,0.00001875,0.0000301
 5,0.00001483,-0.00000428,-0.00002698,-0.00001520,-0.00000534,0.0000060
 2,-0.00004647,-0.00005905,0.00006004,-0.00006070,0.00012219,-0.0002386
 3,0.00050844,-0.00029749,0.00129687,0.00019522,-0.00040407,0.00115966,
 -0.00146638,0.00086536,0.00007583,0.00011153,-0.00002998,-0.00312353,0
 .00218890,-0.00139671,-0.00349897,-0.00191724,-0.00426708,0.00194427,0
 .00970219,-0.01861970,0.00023930,-0.00363974,-0.00013089,0.00194252,-0
 .00345441,0.00304041,-0.00094145,0.00047174,0.00045730,-0.00054218,0.0
 0036729,0.00194767,0.00098453,-0.00076806,-0.00108768,-0.00123502,0.00
 221056,0.00255251,0.00010306,0.00001503,-0.00027068,-0.00002190,0.0000
 6105,-0.00029467,0.00044889,-0.00028465,-0.00048823,0.00003139,0.00155
 241,-0.00028742,0.00098932,-0.00393624,0.00038999,0.00016928,0.0013561
 1,0.00178548,0.05368295,0.10363456,-0.29722089,0.00274397,0.00473952,-
 0.00014266,-0.05691218,-0.11189946,0.31202122\\0.00000003,0.00000003,0
 .,0.,-0.00000005,-0.00000017,-0.00000002,-0.00000005,0.00000004,0.0000
 0004,-0.00000001,0.00000020,-0.00000008,0.00000003,0.,0.00000020,0.000
 00003,-0.00000004,-0.00000001,-0.00000002,-0.00000010,-0.00000005,-0.0
 0000005,-0.00000001,0.00000008,-0.00000037,-0.00000048,-0.00000040,0.0
 0000078,0.00000093,0.,-0.00000029,0.00000043,-0.00000002,0.00000016,-0
 .00000014,0.00000007,0.00000008,-0.00000010,-0.00000015,0.00000002,0.0
 0000012,0.00000002,-0.00000002,-0.00000009,0.00000165,0.00000017,-0.00
 000038,-0.00000162,0.00000004,0.00000036,0.00000028,0.,-0.00000014,0.0
 0000010,-0.00000002,0.00000002,0.00000022,-0.00000025,-0.00000002,0.00
 000010,-0.00000008,0.00000002,0.00000007,-0.00000002,-0.00000004,0.000
 00032,-0.00000004,0.00000015,-0.00000003,-0.00000006,0.00000082,0.0000
 0005,0.00000006,-0.00000077,-0.00000016,-0.00000002,0.00000005,0.00000
 007,0.00000004,0.00000003,-0.00000004,0.00000004,0.00000003,0.00000008
 ,-0.00000023,0.00000009,-0.00000041,0.00000054,0.,0.00000040,-0.000000
 34,-0.00000028,0.00000024,-0.00000006,0.00000094,0.00000103,0.00000013
 ,0.00000014,-0.00000066,-0.00000033,-0.00000043,0.,-0.00000002,-0.0000
 0016,0.00000003,0.,0.00000003,-0.00000004,-0.00000002,-0.00000008,-0.0
 0000005,0.00000005,0.00000011,-0.00000030,0.00000045,-0.00000020,0.000
 00029,-0.00000033,0.00000072,0.00000390,-0.00000042,-0.00000015,-0.000
 00326,-0.00000214,-0.00000279,0.00000050,-0.00000003,-0.00000019,-0.00
 000006,-0.00000036,-0.00000019,-0.00000006,0.00000005,-0.00000005,-0.0
 0000001,-0.00000007,0.00000010,0.00000002,0.00000003,0.00000004,-0.000
 00013,-0.00000002,-0.00000013,-0.00000029,0.00000015,-0.00000313,0.000
 00023,0.00000003,0.00000315,0.00000024,-0.00000002,0.00000018,-0.00000
 019,-0.00000007,-0.00000018,-0.00000073,0.00000037,-0.00000034,-0.0000
 0118,0.00000040,0.,0.00000060,0.00000141,0.00000088,0.00000142,0.00000
 063,0.00000110,0.00000193,0.00000062,-0.00000168,-0.00000009,0.0000003
 2,0.00000017,-0.00000302,0.00000225,0.00000226,-0.00000428,0.00000207,
 -0.00000403,-0.00000823,-0.00000048,0.00000337,0.00000564,-0.00000088,
 0.00000344,-0.00000123,-0.00000037,0.00000232,0.00000173,0.00000129,0.
 00000008,-0.00000394,-0.00000126,0.00000406,0.00000220,-0.00000006,0.0
 0000002,0.00000061,-0.00000106,0.00000142,0.00000145,0.00000026,-0.000
 00123,-0.00000294,-0.00000248,-0.00000305,0.00000182,0.00000061,-0.000
 00016,-0.00000149,-0.00000049,-0.00000404,-0.00000158,-0.00000167,0.00
 000047,0.00000332,0.00000043,0.00000117,0.00000658,0.00000013,-0.00000
 493,-0.00000139,0.00000154,0.00000314,0.00000059,-0.00000070,-0.000002
 71\\\@


 BOOKS ARE LIGHTHOUSES ERECTED IN THE GREAT SEA OF TIME.
     -- E.P.WHIPPLE
 Job cpu time:       0 days  0 hours  0 minutes  0.6 seconds.
 Elapsed time:       0 days  0 hours  1 minutes 43.8 seconds.
 File lengths (MBytes):  RWF=     22 Int=      0 D2E=      0 Chk=      3 Scr=      2
 Normal termination of Gaussian 16 at Tue May 27 10:43:25 2025.
