 Entering Gaussian System, Link 0=/mlatom/software/Gaussian/g16-avx2/g16
 Input=gaussian.com
 Output=gaussian.log
 Initial command:
 /mlatom/software/Gaussian/g16-avx2/l1.exe "/mlatom/home/huangyh/projects/delta_learning/paper/revision1/Starting_from_ub3lyp_d4/c60/xtb/p/Gau-136361.inp" -scrdir="/mlatom/home/huangyh/projects/delta_learning/paper/revision1/Starting_from_ub3lyp_d4/c60/xtb/p/"
 Entering Link 1 = /mlatom/software/Gaussian/g16-avx2/l1.exe PID=    136362.
  
 Copyright (c) 1988,1990,1992,1993,1995,1998,2003,2009,2016,
            Gaussian, Inc.  All Rights Reserved.
  
 This is part of the Gaussian(R) 16 program.  It is based on
 the Gaussian(R) 09 system (copyright 2009, Gaussian, Inc.),
 the Gaussian(R) 03 system (copyright 2003, Gaussian, Inc.),
 the Gaussian(R) 98 system (copyright 1998, Gaussian, Inc.),
 the Gaussian(R) 94 system (copyright 1995, Gaussian, Inc.),
 the Gaussian 92(TM) system (copyright 1992, Gaussian, Inc.),
 the Gaussian 90(TM) system (copyright 1990, Gaussian, Inc.),
 the Gaussian 88(TM) system (copyright 1988, Gaussian, Inc.),
 the Gaussian 86(TM) system (copyright 1986, Carnegie Mellon
 University), and the Gaussian 82(TM) system (copyright 1983,
 Carnegie Mellon University). Gaussian is a federally registered
 trademark of Gaussian, Inc.
  
 This software contains proprietary and confidential information,
 including trade secrets, belonging to Gaussian, Inc.
  
 This software is provided under written license and may be
 used, copied, transmitted, or stored only in accord with that
 written license.
  
 The following legend is applicable only to US Government
 contracts under FAR:
  
                    RESTRICTED RIGHTS LEGEND
  
 Use, reproduction and disclosure by the US Government is
 subject to restrictions as set forth in subparagraphs (a)
 and (c) of the Commercial Computer Software - Restricted
 Rights clause in FAR 52.227-19.
  
 Gaussian, Inc.
 340 Quinnipiac St., Bldg. 40, Wallingford CT 06492
  
  
 ---------------------------------------------------------------
 Warning -- This program may not be used in any manner that
 competes with the business of Gaussian, Inc. or will provide
 assistance to any competitor of Gaussian, Inc.  The licensee
 of this program is prohibited from giving any competitor of
 Gaussian, Inc. access to this program.  By using this program,
 the user acknowledges that Gaussian, Inc. is engaged in the
 business of creating and licensing software in the field of
 computational chemistry and represents and warrants to the
 licensee that it is not a competitor of Gaussian, Inc. and that
 it will not use this program in any manner prohibited above.
 ---------------------------------------------------------------
  

 Cite this work as:
 Gaussian 16, Revision A.03,
 M. J. Frisch, G. W. Trucks, H. B. Schlegel, G. E. Scuseria, 
 M. A. Robb, J. R. Cheeseman, G. Scalmani, V. Barone, 
 G. A. Petersson, H. Nakatsuji, X. Li, M. Caricato, A. V. Marenich, 
 J. Bloino, B. G. Janesko, R. Gomperts, B. Mennucci, H. P. Hratchian, 
 J. V. Ortiz, A. F. Izmaylov, J. L. Sonnenberg, D. Williams-Young, 
 F. Ding, F. Lipparini, F. Egidi, J. Goings, B. Peng, A. Petrone, 
 T. Henderson, D. Ranasinghe, V. G. Zakrzewski, J. Gao, N. Rega, 
 G. Zheng, W. Liang, M. Hada, M. Ehara, K. Toyota, R. Fukuda, 
 J. Hasegawa, M. Ishida, T. Nakajima, Y. Honda, O. Kitao, H. Nakai, 
 T. Vreven, K. Throssell, J. A. Montgomery, Jr., J. E. Peralta, 
 F. Ogliaro, M. J. Bearpark, J. J. Heyd, E. N. Brothers, K. N. Kudin, 
 V. N. Staroverov, T. A. Keith, R. Kobayashi, J. Normand, 
 K. Raghavachari, A. P. Rendell, J. C. Burant, S. S. Iyengar, 
 J. Tomasi, M. Cossi, J. M. Millam, M. Klene, C. Adamo, R. Cammi, 
 J. W. Ochterski, R. L. Martin, K. Morokuma, O. Farkas, 
 J. B. Foresman, and D. J. Fox, Gaussian, Inc., Wallingford CT, 2016.
 
 ******************************************
 Gaussian 16:  ES64L-G16RevA.03 25-Dec-2016
                27-May-2025 
 ******************************************
 %nproc=1
 Will use up to    1 processors via shared memory.
 ----------------------------------------------------------------------
 #p Freq external='/mlatom/software/miniconda3/bin/python /mlatom/softw
 are/mlatom_xacs/mlatom/interfaces/gaussian_interface.py model_predict_
 kwargs'
 ----------------------------------------------------------------------
 1/10=4,18=10,30=1,38=1/1,3;
 2/12=2,17=6,18=5,40=1/2;
 3/11=9,25=1,30=1,41=9900000,43=2,71=2,140=1/1;
 4/20=17,22=2,24=3,113=1,114=1/2;
 6/7=2,8=2,9=2,10=2/1;
 7/8=1,25=1,44=-1/16;
 1/10=4,18=10,30=1/3;
 99//99;
 Leave Link    1 at Tue May 27 14:16:22 2025, MaxMem=           0 cpu:               0.0 elap:               0.0
 (Enter /mlatom/software/Gaussian/g16-avx2/l101.exe)
 ------------------------------------
 c49a612d-3e33-4b82-a012-edc43af79acf
 ------------------------------------
 Symbolic Z-matrix:
 Charge =  0 Multiplicity = 1
 C                    -1.92291   2.29447  -2.37331 
 C                    -0.51106   2.2945   -2.65523 
 C                     0.09362   1.1661   -3.19947 
 C                    -0.70046   0.00113  -3.49194 
 C                    -2.06275   0.00108  -3.22887 
 C                    -2.68501   1.16795  -2.65317 
 C                    -2.12939   3.01522  -1.14098 
 C                    -0.84328   3.4583   -0.66529 
 C                     0.15365   3.0046   -1.60344 
 C                     1.38688   2.54999  -1.14547 
 C                     1.37931   0.73148  -2.72977 
 C                     0.09355  -1.16408  -3.20022 
 C                    -0.51119  -2.2928   -2.6567 
 C                    -1.92304  -2.29287  -2.37478 
 C                    -2.68508  -1.16613  -2.65392 
 C                    -3.68287  -0.72087  -1.7173 
 C                    -3.68281   0.72214  -1.71682 
 C                    -3.88222   1.41593  -0.53051 
 C                    -3.09084   2.58379  -0.23711 
 C                    -0.56707   3.45764   0.69358 
 C                    -1.56552   3.01423   1.63337 
 C                    -2.8036    2.58331   1.17624 
 C                    -3.41783   1.41518   1.75456 
 C                    -4.08518   0.69405   0.70024 
 C                    -4.08521  -0.6943    0.69979 
 C                    -3.8823   -1.4154   -0.53142 
 C                    -3.09099  -2.58349  -0.23877 
 C                    -2.12956  -3.0144   -1.14292 
 C                     1.37928  -0.72983  -2.73024 
 C                     0.71661  -3.00386   1.16586 
 C                     1.67268  -2.54831   0.2626 
 C                     2.47822  -1.40634   0.54992 
 C                     2.28461  -0.73084   1.72483 
 C                     1.28461  -1.16592   2.6593 
 C                    -0.89463  -2.29441   2.68541 
 C                    -1.5657   -3.01521   1.63145 
 C                    -0.56728  -3.45809   0.69137 
 C                    -0.84348  -3.45785  -0.6675 
 C                     0.15348  -3.0036   -1.60536 
 C                     1.38672  -2.54934  -1.1471 
 C                     2.4784    1.40588   0.55081 
 C                     2.28469   0.72962   1.72529 
 C                     1.28468   1.16414   2.66003 
 C                     0.66754  -0.00106   3.23874 
 C                    -0.68953  -0.00112   3.52792 
 C                    -1.48709  -1.16799   3.24067 
 C                    -2.80374  -2.58394   1.17458 
 C                    -3.4179   -1.41613   1.75365 
 C                    -2.77123  -0.72232   2.76799 
 C                    -2.7712    0.72068   2.76845 
 C                    -1.48703   1.16598   3.24141 
 C                    -0.8945    2.29271   2.68688 
 C                     0.51538   2.29261   2.39537 
 C                     0.71679   3.00305   1.16777 
 C                     1.67287   2.54805   0.26423 
 C                     2.01836  -1.40876  -1.72678 
 C                     2.01844   1.40974  -1.72588 
 C                     0.51524  -2.29419   2.39391 
 C                     2.98836  -0.78462  -0.73922 
 C                     2.98847   0.78493  -0.73877 
 C                     5.39916   0.66624  -0.08105 
 C                     5.39882  -0.66637  -0.08098 
 C                     6.21812   1.57765   0.77466 
 H                     6.75402   2.29352   0.1516 
 H                     5.56376   2.14052   1.44141 
 H                     6.93982   1.03675   1.37781 
 C                     6.21742  -1.57811   0.7747 
 H                     6.75386  -2.29354   0.1516 
 H                     6.9386   -1.03742   1.37865 
 H                     5.56272  -2.14148   1.4407 
 C                     4.41939  -1.32358  -1.01001 
 H                     4.67418  -1.11304  -2.05285 
 H                     4.41502  -2.40573  -0.87565 
 C                     4.41955   1.32386  -1.00961 
 H                     4.4153    2.40596  -0.87482 
 H                     4.67404   1.11371  -2.0526 
 
 ITRead=  0  0  0  0  0  0  0  0  0  0  0  0  0  0  0  0  0  0  0  0
 ITRead=  0  0  0  0  0  0  0  0  0  0  0  0  0  0  0  0  0  0  0  0
 ITRead=  0  0  0  0  0  0  0  0  0  0  0  0  0  0  0  0  0  0  0  0
 ITRead=  0  0  0  0  0  0  0  0  0  0  0  0  0  0  0  0
 MicOpt= -1 -1 -1 -1 -1 -1 -1 -1 -1 -1 -1 -1 -1 -1 -1 -1 -1 -1 -1 -1
 MicOpt= -1 -1 -1 -1 -1 -1 -1 -1 -1 -1 -1 -1 -1 -1 -1 -1 -1 -1 -1 -1
 MicOpt= -1 -1 -1 -1 -1 -1 -1 -1 -1 -1 -1 -1 -1 -1 -1 -1 -1 -1 -1 -1
 MicOpt= -1 -1 -1 -1 -1 -1 -1 -1 -1 -1 -1 -1 -1 -1 -1 -1
 NAtoms=     76 NQM=       76 NQMF=       0 NMMI=      0 NMMIF=      0
                NMic=       0 NMicF=      0.
                    Isotopes and Nuclear Properties:
 (Nuclear quadrupole moments (NQMom) in fm**2, nuclear magnetic moments (NMagM)
  in nuclear magnetons)

  Atom         1           2           3           4           5           6           7           8           9          10
 IAtWgt=          12          12          12          12          12          12          12          12          12          12
 AtmWgt=  12.0000000  12.0000000  12.0000000  12.0000000  12.0000000  12.0000000  12.0000000  12.0000000  12.0000000  12.0000000
 NucSpn=           0           0           0           0           0           0           0           0           0           0
 AtZEff=  -0.0000000  -0.0000000  -0.0000000  -0.0000000  -0.0000000  -0.0000000  -0.0000000  -0.0000000  -0.0000000  -0.0000000
 NQMom=    0.0000000   0.0000000   0.0000000   0.0000000   0.0000000   0.0000000   0.0000000   0.0000000   0.0000000   0.0000000
 NMagM=    0.0000000   0.0000000   0.0000000   0.0000000   0.0000000   0.0000000   0.0000000   0.0000000   0.0000000   0.0000000
 AtZNuc=   6.0000000   6.0000000   6.0000000   6.0000000   6.0000000   6.0000000   6.0000000   6.0000000   6.0000000   6.0000000

  Atom        11          12          13          14          15          16          17          18          19          20
 IAtWgt=          12          12          12          12          12          12          12          12          12          12
 AtmWgt=  12.0000000  12.0000000  12.0000000  12.0000000  12.0000000  12.0000000  12.0000000  12.0000000  12.0000000  12.0000000
 NucSpn=           0           0           0           0           0           0           0           0           0           0
 AtZEff=  -0.0000000  -0.0000000  -0.0000000  -0.0000000  -0.0000000  -0.0000000  -0.0000000  -0.0000000  -0.0000000  -0.0000000
 NQMom=    0.0000000   0.0000000   0.0000000   0.0000000   0.0000000   0.0000000   0.0000000   0.0000000   0.0000000   0.0000000
 NMagM=    0.0000000   0.0000000   0.0000000   0.0000000   0.0000000   0.0000000   0.0000000   0.0000000   0.0000000   0.0000000
 AtZNuc=   6.0000000   6.0000000   6.0000000   6.0000000   6.0000000   6.0000000   6.0000000   6.0000000   6.0000000   6.0000000

  Atom        21          22          23          24          25          26          27          28          29          30
 IAtWgt=          12          12          12          12          12          12          12          12          12          12
 AtmWgt=  12.0000000  12.0000000  12.0000000  12.0000000  12.0000000  12.0000000  12.0000000  12.0000000  12.0000000  12.0000000
 NucSpn=           0           0           0           0           0           0           0           0           0           0
 AtZEff=  -0.0000000  -0.0000000  -0.0000000  -0.0000000  -0.0000000  -0.0000000  -0.0000000  -0.0000000  -0.0000000  -0.0000000
 NQMom=    0.0000000   0.0000000   0.0000000   0.0000000   0.0000000   0.0000000   0.0000000   0.0000000   0.0000000   0.0000000
 NMagM=    0.0000000   0.0000000   0.0000000   0.0000000   0.0000000   0.0000000   0.0000000   0.0000000   0.0000000   0.0000000
 AtZNuc=   6.0000000   6.0000000   6.0000000   6.0000000   6.0000000   6.0000000   6.0000000   6.0000000   6.0000000   6.0000000

  Atom        31          32          33          34          35          36          37          38          39          40
 IAtWgt=          12          12          12          12          12          12          12          12          12          12
 AtmWgt=  12.0000000  12.0000000  12.0000000  12.0000000  12.0000000  12.0000000  12.0000000  12.0000000  12.0000000  12.0000000
 NucSpn=           0           0           0           0           0           0           0           0           0           0
 AtZEff=  -0.0000000  -0.0000000  -0.0000000  -0.0000000  -0.0000000  -0.0000000  -0.0000000  -0.0000000  -0.0000000  -0.0000000
 NQMom=    0.0000000   0.0000000   0.0000000   0.0000000   0.0000000   0.0000000   0.0000000   0.0000000   0.0000000   0.0000000
 NMagM=    0.0000000   0.0000000   0.0000000   0.0000000   0.0000000   0.0000000   0.0000000   0.0000000   0.0000000   0.0000000
 AtZNuc=   6.0000000   6.0000000   6.0000000   6.0000000   6.0000000   6.0000000   6.0000000   6.0000000   6.0000000   6.0000000

  Atom        41          42          43          44          45          46          47          48          49          50
 IAtWgt=          12          12          12          12          12          12          12          12          12          12
 AtmWgt=  12.0000000  12.0000000  12.0000000  12.0000000  12.0000000  12.0000000  12.0000000  12.0000000  12.0000000  12.0000000
 NucSpn=           0           0           0           0           0           0           0           0           0           0
 AtZEff=  -0.0000000  -0.0000000  -0.0000000  -0.0000000  -0.0000000  -0.0000000  -0.0000000  -0.0000000  -0.0000000  -0.0000000
 NQMom=    0.0000000   0.0000000   0.0000000   0.0000000   0.0000000   0.0000000   0.0000000   0.0000000   0.0000000   0.0000000
 NMagM=    0.0000000   0.0000000   0.0000000   0.0000000   0.0000000   0.0000000   0.0000000   0.0000000   0.0000000   0.0000000
 AtZNuc=   6.0000000   6.0000000   6.0000000   6.0000000   6.0000000   6.0000000   6.0000000   6.0000000   6.0000000   6.0000000

  Atom        51          52          53          54          55          56          57          58          59          60
 IAtWgt=          12          12          12          12          12          12          12          12          12          12
 AtmWgt=  12.0000000  12.0000000  12.0000000  12.0000000  12.0000000  12.0000000  12.0000000  12.0000000  12.0000000  12.0000000
 NucSpn=           0           0           0           0           0           0           0           0           0           0
 AtZEff=  -0.0000000  -0.0000000  -0.0000000  -0.0000000  -0.0000000  -0.0000000  -0.0000000  -0.0000000  -0.0000000  -0.0000000
 NQMom=    0.0000000   0.0000000   0.0000000   0.0000000   0.0000000   0.0000000   0.0000000   0.0000000   0.0000000   0.0000000
 NMagM=    0.0000000   0.0000000   0.0000000   0.0000000   0.0000000   0.0000000   0.0000000   0.0000000   0.0000000   0.0000000
 AtZNuc=   6.0000000   6.0000000   6.0000000   6.0000000   6.0000000   6.0000000   6.0000000   6.0000000   6.0000000   6.0000000

  Atom        61          62          63          64          65          66          67          68          69          70
 IAtWgt=          12          12          12           1           1           1          12           1           1           1
 AtmWgt=  12.0000000  12.0000000  12.0000000   1.0078250   1.0078250   1.0078250  12.0000000   1.0078250   1.0078250   1.0078250
 NucSpn=           0           0           0           1           1           1           0           1           1           1
 AtZEff=  -0.0000000  -0.0000000  -0.0000000  -0.0000000  -0.0000000  -0.0000000  -0.0000000  -0.0000000  -0.0000000  -0.0000000
 NQMom=    0.0000000   0.0000000   0.0000000   0.0000000   0.0000000   0.0000000   0.0000000   0.0000000   0.0000000   0.0000000
 NMagM=    0.0000000   0.0000000   0.0000000   2.7928460   2.7928460   2.7928460   0.0000000   2.7928460   2.7928460   2.7928460
 AtZNuc=   6.0000000   6.0000000   6.0000000   1.0000000   1.0000000   1.0000000   6.0000000   1.0000000   1.0000000   1.0000000

  Atom        71          72          73          74          75          76
 IAtWgt=          12           1           1          12           1           1
 AtmWgt=  12.0000000   1.0078250   1.0078250  12.0000000   1.0078250   1.0078250
 NucSpn=           0           1           1           0           1           1
 AtZEff=  -0.0000000  -0.0000000  -0.0000000  -0.0000000  -0.0000000  -0.0000000
 NQMom=    0.0000000   0.0000000   0.0000000   0.0000000   0.0000000   0.0000000
 NMagM=    0.0000000   2.7928460   2.7928460   0.0000000   2.7928460   2.7928460
 AtZNuc=   6.0000000   1.0000000   1.0000000   6.0000000   1.0000000   1.0000000
 Leave Link  101 at Tue May 27 14:16:22 2025, MaxMem=   104857600 cpu:               0.1 elap:               0.2
 (Enter /mlatom/software/Gaussian/g16-avx2/l103.exe)

 GradGradGradGradGradGradGradGradGradGradGradGradGradGradGradGradGradGrad
 Berny optimization.
 Initialization pass.
 Trust Radius=3.00D-01 FncErr=1.00D-07 GrdErr=1.00D-07 EigMax=2.50D+02 EigMin=1.00D-04
 Number of steps in this run=      2 maximum allowed number of steps=      2.
 GradGradGradGradGradGradGradGradGradGradGradGradGradGradGradGradGradGrad

 Leave Link  103 at Tue May 27 14:16:22 2025, MaxMem=   104857600 cpu:               0.0 elap:               0.1
 (Enter /mlatom/software/Gaussian/g16-avx2/l202.exe)
 Stoichiometry    C66H10
 Framework group  C1[X(C66H10)]
 Deg. of freedom   222
 Full point group                 C1      NOp   1
 Largest Abelian subgroup         C1      NOp   1
 Largest concise Abelian subgroup C1      NOp   1
                         Standard orientation:                         
 ---------------------------------------------------------------------
 Center     Atomic      Atomic             Coordinates (Angstroms)
 Number     Number       Type             X           Y           Z
 ---------------------------------------------------------------------
      1          6           0        1.922908   -2.294474   -2.373305
      2          6           0        0.511058   -2.294503   -2.655230
      3          6           0       -0.093615   -1.166099   -3.199472
      4          6           0        0.700460   -0.001125   -3.491937
      5          6           0        2.062753   -0.001077   -3.228869
      6          6           0        2.685013   -1.167952   -2.653170
      7          6           0        2.129387   -3.015220   -1.140983
      8          6           0        0.843283   -3.458303   -0.665289
      9          6           0       -0.153648   -3.004599   -1.603439
     10          6           0       -1.386875   -2.549988   -1.145472
     11          6           0       -1.379313   -0.731485   -2.729770
     12          6           0       -0.093555    1.164078   -3.200220
     13          6           0        0.511187    2.292795   -2.656703
     14          6           0        1.923038    2.292872   -2.374778
     15          6           0        2.685084    1.166131   -2.653923
     16          6           0        3.682865    0.720866   -1.717299
     17          6           0        3.682806   -0.722140   -1.716824
     18          6           0        3.882219   -1.415926   -0.530508
     19          6           0        3.090842   -2.583787   -0.237109
     20          6           0        0.567075   -3.457644    0.693581
     21          6           0        1.565524   -3.014225    1.633369
     22          6           0        2.803596   -2.583314    1.176236
     23          6           0        3.417828   -1.415178    1.754555
     24          6           0        4.085181   -0.694052    0.700236
     25          6           0        4.085206    0.694297    0.699791
     26          6           0        3.882298    1.415396   -0.531418
     27          6           0        3.090986    2.583489   -0.238765
     28          6           0        2.129555    3.014396   -1.142916
     29          6           0       -1.379279    0.729831   -2.730239
     30          6           0       -0.716606    3.003863    1.165859
     31          6           0       -1.672683    2.548315    0.262604
     32          6           0       -2.478223    1.406341    0.549922
     33          6           0       -2.284614    0.730835    1.724833
     34          6           0       -1.284606    1.165921    2.659302
     35          6           0        0.894632    2.294407    2.685415
     36          6           0        1.565696    3.015211    1.631445
     37          6           0        0.567276    3.458087    0.691372
     38          6           0        0.843478    3.457854   -0.667501
     39          6           0       -0.153476    3.003603   -1.605364
     40          6           0       -1.386719    2.549343   -1.147101
     41          6           0       -2.478405   -1.405878    0.550809
     42          6           0       -2.284686   -0.729616    1.725289
     43          6           0       -1.284683   -1.164141    2.660032
     44          6           0       -0.667542    0.001056    3.238740
     45          6           0        0.689529    0.001116    3.527925
     46          6           0        1.487091    1.167987    3.240667
     47          6           0        2.803739    2.583937    1.174581
     48          6           0        3.417898    1.416133    1.753650
     49          6           0        2.771227    0.722316    2.767994
     50          6           0        2.771196   -0.720675    2.768452
     51          6           0        1.487031   -1.165977    3.241407
     52          6           0        0.894502   -2.292715    2.686876
     53          6           0       -0.515378   -2.292610    2.395372
     54          6           0       -0.716789   -3.003054    1.167770
     55          6           0       -1.672867   -2.548051    0.264231
     56          6           0       -2.018360    1.408764   -1.726777
     57          6           0       -2.018442   -1.409743   -1.725881
     58          6           0       -0.515244    2.294185    2.393914
     59          6           0       -2.988359    0.784617   -0.739221
     60          6           0       -2.988469   -0.784927   -0.738766
     61          6           0       -5.399163   -0.666241   -0.081046
     62          6           0       -5.398816    0.666369   -0.080984
     63          6           0       -6.218120   -1.577646    0.774656
     64          1           0       -6.754017   -2.293524    0.151604
     65          1           0       -5.563765   -2.140521    1.441411
     66          1           0       -6.939824   -1.036749    1.377807
     67          6           0       -6.217416    1.578110    0.774700
     68          1           0       -6.753860    2.293539    0.151597
     69          1           0       -6.938605    1.037418    1.378649
     70          1           0       -5.562722    2.141479    1.440699
     71          6           0       -4.419390    1.323580   -1.010009
     72          1           0       -4.674177    1.113040   -2.052849
     73          1           0       -4.415015    2.405730   -0.875647
     74          6           0       -4.419549   -1.323858   -1.009608
     75          1           0       -4.415305   -2.405958   -0.874822
     76          1           0       -4.674042   -1.113712   -2.052600
 ---------------------------------------------------------------------
 Rotational constants (GHZ):           0.0821415           0.0572631           0.0565996
 Leave Link  202 at Tue May 27 14:16:22 2025, MaxMem=   104857600 cpu:               0.0 elap:               0.1
 (Enter /mlatom/software/Gaussian/g16-avx2/l301.exe)
 Standard basis: STO-3G (5D, 7F)
 Ernie: Thresh=  0.10000D-02 Tol=  0.10000D-05 Strict=F.
 There are   340 symmetry adapted cartesian basis functions of A   symmetry.
 There are   340 symmetry adapted basis functions of A   symmetry.
   340 basis functions,  1020 primitive gaussians,   340 cartesian basis functions
   203 alpha electrons      203 beta electrons
       nuclear repulsion energy     10008.8935092093 Hartrees.
 IExCor=    0 DFT=F Ex=HF Corr=None ExCW=0 ScaHFX=  1.000000
 ScaDFX=  1.000000  1.000000  1.000000  1.000000 ScalE2=  1.000000  1.000000
 IRadAn=      5 IRanWt=     -1 IRanGd=            0 ICorTp=0 IEmpDi=  4
 NAtoms=   76 NActive=   76 NUniq=   76 SFac= 1.00D+00 NAtFMM=   60 NAOKFM=T Big=T
 Integral buffers will be    131072 words long.
 Raffenetti 1 integral format.
 Two-electron integral symmetry is turned on.
 Leave Link  301 at Tue May 27 14:16:22 2025, MaxMem=   104857600 cpu:               0.1 elap:               0.1
 (Enter /mlatom/software/Gaussian/g16-avx2/l402.exe)
 External calculation of energy, first and second derivatives.
 Running external command "/mlatom/software/miniconda3/bin/python /mlatom/software/mlatom_xacs/mlatom/interfaces/gaussian_interface.py model_predict_kwargs R"
         input file       "/mlatom/home/huangyh/projects/delta_learning/paper/revision1/Starting_from_ub3lyp_d4/c60/xtb/p/Gau-136362.EIn"
         output file      "/mlatom/home/huangyh/projects/delta_learning/paper/revision1/Starting_from_ub3lyp_d4/c60/xtb/p/Gau-136362.EOu"
         message file     "/mlatom/home/huangyh/projects/delta_learning/paper/revision1/Starting_from_ub3lyp_d4/c60/xtb/p/Gau-136362.EMs"
         fchk file        "/mlatom/home/huangyh/projects/delta_learning/paper/revision1/Starting_from_ub3lyp_d4/c60/xtb/p/Gau-136362.EFC"
         mat. el file     "/mlatom/home/huangyh/projects/delta_learning/paper/revision1/Starting_from_ub3lyp_d4/c60/xtb/p/Gau-136362.EUF"
 Recovered energy= -146.448007525     dipole=     -3.487048107030      0.000000000000     -0.378695457688
 Energy=    -146.448008     NIter=   0.
 Dipole moment=      -3.487048       0.000000      -0.378695
 Leave Link  402 at Tue May 27 14:17:58 2025, MaxMem=   104857600 cpu:               0.1 elap:              95.5
 (Enter /mlatom/software/Gaussian/g16-avx2/l601.exe)
 Leave Link  601 at Tue May 27 14:17:58 2025, MaxMem=   104857600 cpu:               0.0 elap:               0.1
 (Enter /mlatom/software/Gaussian/g16-avx2/l716.exe)
 Dipole        =-3.48704811D+00 0.00000000D+00-3.78695458D-01
 Full mass-weighted force constant matrix:
 Low frequencies ---   -0.0171   -0.0117   -0.0111   -0.0025    0.0087    0.0193
 Low frequencies ---   54.1753   74.3905   99.1223
 Diagonal vibrational polarizability:
        0.0000000       0.0000000       0.0000000
 Harmonic frequencies (cm**-1), IR intensities (KM/Mole), Raman scattering
 activities (A**4/AMU), depolarization ratios for plane and unpolarized
 incident light, reduced masses (AMU), force constants (mDyne/A),
 and normal coordinates:
                      1                      2                      3
                      A                      A                      A
 Frequencies --     54.1753                74.3905                99.1223
 Red. masses --      3.9488                 3.5546                 1.9096
 Frc consts  --      0.0068                 0.0116                 0.0111
 IR Inten    --      0.0000                 0.0000                 0.0000
  Atom  AN      X      Y      Z        X      Y      Z        X      Y      Z
     1   6     0.02   0.00   0.00    -0.02  -0.01   0.01    -0.01  -0.00  -0.00
     2   6     0.02   0.00  -0.01    -0.02   0.00   0.01    -0.01   0.01  -0.00
     3   6     0.02   0.00  -0.02    -0.01   0.00   0.00    -0.00   0.01  -0.00
     4   6     0.03  -0.00  -0.01    -0.00  -0.00   0.00    -0.00   0.01   0.00
     5   6     0.02   0.00   0.00    -0.00  -0.01   0.00    -0.00  -0.00  -0.00
     6   6     0.02   0.00   0.01    -0.01  -0.02   0.00    -0.01  -0.01  -0.00
     7   6     0.00   0.00   0.00    -0.02  -0.01   0.01    -0.02  -0.00  -0.00
     8   6    -0.00  -0.00  -0.01    -0.03   0.00   0.01    -0.02   0.00  -0.00
     9   6     0.01  -0.00  -0.02    -0.02   0.01   0.01    -0.01   0.01  -0.00
    10   6     0.00  -0.00  -0.04    -0.01   0.02   0.01    -0.01   0.02   0.00
    11   6     0.02  -0.00  -0.04    -0.00   0.02  -0.00    -0.00   0.02  -0.00
    12   6     0.02  -0.00  -0.02     0.01   0.00  -0.00     0.00   0.01   0.00
    13   6     0.02  -0.00  -0.01     0.02   0.00  -0.01     0.01   0.01   0.00
    14   6     0.02  -0.00   0.00     0.02  -0.01  -0.01     0.01  -0.00   0.00
    15   6     0.02  -0.00   0.01     0.01  -0.02  -0.00     0.01  -0.01   0.00
    16   6     0.01  -0.00   0.02     0.01  -0.02  -0.00     0.00  -0.01   0.00
    17   6     0.01   0.00   0.02    -0.01  -0.02   0.00    -0.00  -0.01  -0.00
    18   6    -0.01   0.00   0.02    -0.01  -0.02   0.01    -0.01  -0.01  -0.00
    19   6    -0.01   0.00   0.01    -0.02  -0.01   0.01    -0.01  -0.01  -0.00
    20   6    -0.02  -0.00  -0.01    -0.03   0.01   0.01    -0.02   0.00  -0.00
    21   6    -0.03  -0.00  -0.00    -0.02   0.01   0.01    -0.02  -0.00   0.00
    22   6    -0.02  -0.00   0.01    -0.02  -0.00   0.01    -0.01  -0.01  -0.00
    23   6    -0.03  -0.00   0.02    -0.01  -0.01   0.01    -0.01  -0.01  -0.00
    24   6    -0.02   0.00   0.03    -0.01  -0.01   0.00    -0.00  -0.01  -0.00
    25   6    -0.02  -0.00   0.03     0.01  -0.01  -0.00     0.00  -0.01   0.00
    26   6    -0.01  -0.00   0.02     0.01  -0.02  -0.01     0.01  -0.01   0.00
    27   6    -0.01  -0.00   0.01     0.02  -0.01  -0.01     0.01  -0.01   0.00
    28   6     0.00  -0.00   0.00     0.02  -0.01  -0.01     0.02  -0.00   0.00
    29   6     0.02   0.00  -0.04     0.00   0.02   0.00     0.00   0.02   0.00
    30   6    -0.02   0.00  -0.03     0.02   0.02  -0.01     0.01   0.01  -0.00
    31   6    -0.01   0.00  -0.04     0.02   0.03  -0.01     0.01   0.02  -0.00
    32   6    -0.01  -0.00  -0.05     0.02   0.03  -0.00    -0.00   0.02  -0.00
    33   6    -0.03  -0.00  -0.04     0.01   0.04  -0.00     0.00   0.02  -0.00
    34   6    -0.04   0.00  -0.03     0.01   0.03  -0.00     0.01   0.02  -0.00
    35   6    -0.04   0.00  -0.01     0.02   0.02  -0.01     0.01   0.00  -0.00
    36   6    -0.03   0.00  -0.00     0.02   0.01  -0.01     0.02  -0.00  -0.00
    37   6    -0.02   0.00  -0.01     0.03   0.01  -0.01     0.02   0.00   0.00
    38   6    -0.00   0.00  -0.01     0.03   0.00  -0.01     0.02   0.00   0.00
    39   6     0.01   0.00  -0.02     0.02   0.01  -0.01     0.01   0.01   0.00
    40   6     0.00   0.00  -0.04     0.01   0.02  -0.01     0.01   0.02  -0.00
    41   6    -0.01   0.00  -0.05    -0.02   0.03   0.00     0.00   0.02   0.00
    42   6    -0.03   0.00  -0.04    -0.01   0.04   0.00    -0.00   0.02   0.00
    43   6    -0.04  -0.00  -0.03    -0.01   0.03   0.00    -0.01   0.02   0.00
    44   6    -0.05  -0.00  -0.02     0.00   0.03  -0.00     0.00   0.01   0.00
    45   6    -0.05   0.00  -0.01     0.00   0.02  -0.00     0.00   0.00   0.00
    46   6    -0.05   0.00  -0.00     0.01   0.02  -0.00     0.01   0.00  -0.00
    47   6    -0.02   0.00   0.01     0.02  -0.00  -0.01     0.01  -0.01   0.00
    48   6    -0.03   0.00   0.02     0.01  -0.01  -0.01     0.01  -0.01   0.00
    49   6    -0.04  -0.00   0.01     0.01   0.00  -0.00     0.00  -0.01   0.00
    50   6    -0.04   0.00   0.01    -0.01   0.00   0.00    -0.00  -0.01  -0.00
    51   6    -0.05  -0.00  -0.00    -0.01   0.02   0.00    -0.01   0.00   0.00
    52   6    -0.04  -0.00  -0.01    -0.02   0.02   0.01    -0.01   0.00   0.00
    53   6    -0.04  -0.00  -0.03    -0.02   0.03   0.01    -0.01   0.01   0.00
    54   6    -0.02  -0.00  -0.03    -0.02   0.02   0.01    -0.01   0.01   0.00
    55   6    -0.01  -0.00  -0.04    -0.02   0.03   0.01    -0.01   0.02   0.00
    56   6     0.00   0.00  -0.05    -0.01   0.03  -0.01    -0.01   0.02  -0.00
    57   6     0.00  -0.00  -0.05     0.01   0.03   0.01     0.01   0.02   0.00
    58   6    -0.04   0.00  -0.03     0.02   0.03  -0.01     0.01   0.01  -0.00
    59   6     0.00  -0.00  -0.05    -0.00   0.03   0.01    -0.01   0.02   0.00
    60   6     0.00   0.00  -0.05     0.00   0.03  -0.01     0.01   0.02  -0.00
    61   6     0.07  -0.00   0.09    -0.01  -0.08  -0.07     0.03  -0.04   0.01
    62   6     0.07   0.00   0.09     0.01  -0.08   0.07    -0.03  -0.04  -0.01
    63   6     0.19  -0.00   0.21    -0.04  -0.18  -0.20     0.14  -0.07   0.08
    64   1     0.14  -0.03   0.29     0.04  -0.15  -0.31    -0.11   0.08   0.11
    65   1     0.29   0.04   0.15    -0.08  -0.20  -0.19     0.25  -0.25  -0.18
    66   1     0.25  -0.00   0.28    -0.12  -0.25  -0.23     0.36  -0.08   0.36
    67   6     0.20   0.00   0.21     0.04  -0.18   0.20    -0.14  -0.07  -0.08
    68   1     0.14   0.03   0.29    -0.04  -0.15   0.31     0.11   0.08  -0.11
    69   1     0.25   0.00   0.28     0.12  -0.25   0.23    -0.36  -0.08  -0.36
    70   1     0.29  -0.04   0.15     0.08  -0.20   0.19    -0.25  -0.25   0.18
    71   6    -0.01  -0.01   0.00    -0.03   0.02   0.10    -0.03  -0.00   0.01
    72   1    -0.07  -0.04   0.02    -0.06   0.09   0.09    -0.01   0.02   0.00
    73   1    -0.01  -0.00  -0.03    -0.05   0.01   0.18    -0.05  -0.01   0.04
    74   6    -0.01   0.01   0.00     0.03   0.02  -0.10     0.03  -0.00  -0.01
    75   1    -0.01   0.00  -0.03     0.05   0.01  -0.18     0.05  -0.01  -0.04
    76   1    -0.07   0.04   0.02     0.06   0.09  -0.09     0.01   0.02  -0.00
                      4                      5                      6
                      A                      A                      A
 Frequencies --    102.8686               109.9463               169.9833
 Red. masses --      1.0222                 1.3452                 4.3611
 Frc consts  --      0.0064                 0.0096                 0.0742
 IR Inten    --      0.0000                 0.0000                 0.0000
  Atom  AN      X      Y      Z        X      Y      Z        X      Y      Z
     1   6     0.00   0.00   0.00    -0.01   0.00  -0.00    -0.04  -0.01   0.00
     2   6     0.00   0.00  -0.00    -0.01   0.01  -0.00    -0.04  -0.01   0.01
     3   6     0.00   0.00   0.00    -0.00   0.01  -0.00    -0.04  -0.01   0.01
     4   6     0.00   0.00   0.00     0.00   0.01  -0.00    -0.05  -0.00  -0.01
     5   6     0.00   0.00   0.00     0.00   0.00  -0.00    -0.05  -0.00  -0.01
     6   6     0.00   0.00   0.00    -0.00  -0.00  -0.00    -0.05  -0.00  -0.01
     7   6     0.00   0.00   0.00    -0.01  -0.00  -0.00    -0.03  -0.01   0.00
     8   6     0.00  -0.00  -0.00    -0.01   0.00  -0.00    -0.02  -0.01   0.02
     9   6     0.00  -0.00  -0.00    -0.01   0.01  -0.00    -0.03  -0.01   0.02
    10   6     0.00  -0.00  -0.00    -0.01   0.01  -0.00    -0.01  -0.01   0.05
    11   6     0.00  -0.00  -0.00    -0.00   0.02  -0.00    -0.02  -0.00   0.03
    12   6     0.00  -0.00   0.00     0.00   0.01   0.00    -0.04   0.01   0.01
    13   6     0.00  -0.00  -0.00     0.01   0.01   0.00    -0.04   0.01   0.01
    14   6     0.00  -0.00   0.00     0.01   0.00   0.00    -0.04   0.01   0.00
    15   6     0.00  -0.00   0.00     0.00  -0.00   0.00    -0.05   0.00  -0.01
    16   6     0.00   0.00   0.00     0.00  -0.01   0.00    -0.05  -0.00  -0.02
    17   6     0.00  -0.00   0.00    -0.00  -0.01  -0.00    -0.05   0.00  -0.02
    18   6     0.00  -0.00   0.00    -0.01  -0.01  -0.00    -0.03   0.00  -0.02
    19   6     0.00  -0.00   0.00    -0.01  -0.01  -0.00    -0.03  -0.00  -0.01
    20   6     0.00  -0.00  -0.00    -0.01   0.00  -0.00    -0.01  -0.00   0.02
    21   6     0.00  -0.00   0.00    -0.01  -0.00  -0.00    -0.00  -0.00   0.01
    22   6     0.00  -0.00   0.00    -0.01  -0.01  -0.00    -0.01  -0.00  -0.01
    23   6     0.00  -0.00   0.00    -0.01  -0.01  -0.00    -0.00   0.00  -0.02
    24   6     0.00  -0.00   0.00    -0.00  -0.01  -0.00    -0.02   0.00  -0.03
    25   6     0.00   0.00   0.00     0.00  -0.01   0.00    -0.02  -0.00  -0.03
    26   6     0.00   0.00   0.00     0.01  -0.01   0.00    -0.03  -0.00  -0.02
    27   6     0.00   0.00   0.00     0.01  -0.01   0.00    -0.03   0.00  -0.01
    28   6     0.00  -0.00   0.00     0.01  -0.00   0.00    -0.03   0.01   0.00
    29   6     0.00   0.00  -0.00     0.00   0.02   0.00    -0.02   0.00   0.03
    30   6     0.00   0.00  -0.00     0.01   0.01   0.00    -0.01   0.01   0.04
    31   6     0.00  -0.00  -0.00     0.00   0.01   0.00    -0.01   0.01   0.05
    32   6     0.00  -0.00  -0.00    -0.01   0.02   0.00    -0.02   0.01   0.05
    33   6    -0.00  -0.00  -0.00     0.00   0.02  -0.00     0.00   0.00   0.04
    34   6    -0.00   0.00  -0.00     0.00   0.01  -0.00     0.01  -0.00   0.04
    35   6    -0.00   0.00  -0.00     0.01   0.00   0.00     0.01   0.00   0.02
    36   6     0.00   0.00   0.00     0.01  -0.00   0.00    -0.00   0.00   0.01
    37   6     0.00   0.00  -0.00     0.01   0.00   0.00    -0.01   0.00   0.02
    38   6     0.00   0.00  -0.00     0.01   0.00   0.00    -0.02   0.01   0.02
    39   6     0.00   0.00  -0.00     0.01   0.01   0.00    -0.03   0.01   0.02
    40   6     0.00   0.00  -0.00     0.01   0.01   0.00    -0.01   0.01   0.05
    41   6     0.00   0.00  -0.00     0.01   0.02  -0.00    -0.02  -0.01   0.05
    42   6    -0.00   0.00  -0.00    -0.00   0.02   0.00     0.00  -0.00   0.04
    43   6    -0.00  -0.00  -0.00    -0.00   0.01   0.00     0.01   0.00   0.04
    44   6    -0.00   0.00  -0.00     0.00   0.01  -0.00     0.02   0.00   0.03
    45   6    -0.00  -0.00  -0.00    -0.00   0.00  -0.00     0.02   0.00   0.02
    46   6    -0.00   0.00   0.00     0.00  -0.00   0.00     0.02   0.00   0.01
    47   6     0.00   0.00   0.00     0.01  -0.01   0.00    -0.01   0.00  -0.01
    48   6     0.00   0.00   0.00     0.01  -0.01   0.00    -0.00  -0.00  -0.02
    49   6    -0.00   0.00   0.00     0.00  -0.01   0.00     0.01  -0.00  -0.01
    50   6    -0.00  -0.00   0.00    -0.00  -0.01  -0.00     0.01   0.00  -0.01
    51   6    -0.00  -0.00   0.00    -0.00  -0.00  -0.00     0.02  -0.00   0.01
    52   6    -0.00  -0.00  -0.00    -0.01   0.00  -0.00     0.01  -0.00   0.02
    53   6    -0.00  -0.00  -0.00    -0.01   0.01  -0.00     0.01  -0.00   0.04
    54   6     0.00  -0.00  -0.00    -0.01   0.01  -0.00    -0.01  -0.01   0.04
    55   6     0.00   0.00  -0.00    -0.00   0.01  -0.00    -0.01  -0.01   0.05
    56   6    -0.00   0.00  -0.00    -0.00   0.02  -0.00     0.02  -0.01   0.05
    57   6    -0.00  -0.00  -0.00     0.00   0.02   0.00     0.02   0.01   0.05
    58   6    -0.00   0.00  -0.00     0.01   0.01   0.00     0.01   0.00   0.04
    59   6     0.00   0.00  -0.00    -0.01   0.02  -0.00     0.03  -0.00   0.03
    60   6     0.00  -0.00  -0.00     0.01   0.02   0.00     0.03   0.00   0.03
    61   6     0.01   0.00   0.02     0.01  -0.03   0.01     0.05  -0.00  -0.18
    62   6     0.01  -0.00   0.02    -0.01  -0.03  -0.01     0.05   0.00  -0.18
    63   6    -0.01  -0.01  -0.01     0.07  -0.04   0.05     0.20  -0.02  -0.06
    64   1    -0.31   0.26  -0.06     0.35  -0.30   0.11     0.15  -0.06   0.03
    65   1     0.01  -0.32  -0.29     0.08   0.27   0.30     0.34   0.02  -0.15
    66   1     0.25   0.01   0.28    -0.18  -0.08  -0.20     0.27  -0.05   0.04
    67   6    -0.01   0.01  -0.01    -0.07  -0.04  -0.05     0.20   0.02  -0.06
    68   1    -0.31  -0.26  -0.06    -0.35  -0.30  -0.11     0.15   0.06   0.03
    69   1     0.25  -0.01   0.28     0.18  -0.08   0.20     0.27   0.05   0.04
    70   1     0.01   0.32  -0.30    -0.08   0.26  -0.30     0.34  -0.02  -0.15
    71   6    -0.00  -0.00   0.00    -0.02  -0.02  -0.01     0.06  -0.02  -0.15
    72   1    -0.01  -0.01   0.01    -0.01  -0.04  -0.01     0.17  -0.07  -0.17
    73   1    -0.00  -0.00  -0.00    -0.05  -0.02  -0.03     0.04  -0.01  -0.21
    74   6    -0.00   0.00   0.00     0.02  -0.02   0.01     0.06   0.02  -0.15
    75   1    -0.00   0.00  -0.00     0.05  -0.02   0.03     0.04   0.01  -0.21
    76   1    -0.01   0.01   0.01     0.01  -0.04   0.01     0.17   0.07  -0.17
                      7                      8                      9
                      A                      A                      A
 Frequencies --    188.8527               227.0663               243.0010
 Red. masses --      3.0598                 6.7458                11.9694
 Frc consts  --      0.0643                 0.2049                 0.4164
 IR Inten    --      0.0000                 0.0000                 0.0000
  Atom  AN      X      Y      Z        X      Y      Z        X      Y      Z
     1   6     0.02  -0.01   0.01    -0.01  -0.02  -0.05     0.04  -0.12  -0.12
     2   6     0.02  -0.02   0.01    -0.00  -0.03  -0.06     0.02  -0.14  -0.15
     3   6     0.01  -0.03   0.01     0.02  -0.01  -0.08    -0.01  -0.13  -0.11
     4   6    -0.00  -0.03   0.00     0.01  -0.00  -0.10     0.00  -0.11   0.00
     5   6    -0.00  -0.02   0.00    -0.00  -0.00  -0.08     0.00  -0.09   0.00
     6   6     0.01  -0.01   0.00    -0.03  -0.01  -0.05     0.04  -0.10  -0.06
     7   6     0.03  -0.01   0.01    -0.03  -0.02  -0.03     0.04  -0.08  -0.09
     8   6     0.03  -0.01   0.01    -0.02  -0.02  -0.01     0.02  -0.05  -0.10
     9   6     0.02  -0.02   0.01     0.01  -0.03  -0.04    -0.00  -0.11  -0.12
    10   6     0.01  -0.02   0.01     0.04   0.00  -0.01    -0.00  -0.07  -0.11
    11   6     0.01  -0.03   0.00     0.04  -0.00  -0.04    -0.01  -0.11  -0.08
    12   6    -0.01  -0.03  -0.01     0.02   0.01  -0.08     0.01  -0.13   0.11
    13   6    -0.02  -0.02  -0.01    -0.00   0.03  -0.06    -0.02  -0.14   0.15
    14   6    -0.02  -0.01  -0.01    -0.01   0.02  -0.05    -0.04  -0.12   0.12
    15   6    -0.01  -0.01  -0.00    -0.03   0.01  -0.05    -0.04  -0.10   0.06
    16   6    -0.01   0.00  -0.00    -0.07  -0.00  -0.02    -0.02  -0.07   0.04
    17   6     0.01   0.00   0.00    -0.07   0.00  -0.02     0.02  -0.07  -0.04
    18   6     0.02   0.01   0.00    -0.09   0.01  -0.01     0.04  -0.03  -0.03
    19   6     0.03   0.00   0.01    -0.06  -0.00  -0.01     0.02  -0.03  -0.07
    20   6     0.02  -0.01   0.01    -0.02  -0.03  -0.00     0.02   0.05  -0.10
    21   6     0.02  -0.00   0.01    -0.04  -0.02   0.02     0.00   0.08  -0.10
    22   6     0.02   0.01   0.01    -0.06  -0.00  -0.01     0.01   0.03  -0.07
    23   6     0.01   0.01   0.00    -0.10   0.01  -0.01    -0.02   0.04  -0.04
    24   6     0.01   0.02   0.00    -0.12   0.00  -0.02     0.01   0.00  -0.03
    25   6    -0.01   0.02  -0.00    -0.12  -0.00  -0.02    -0.01   0.00   0.03
    26   6    -0.02   0.01  -0.00    -0.09  -0.01  -0.01    -0.04  -0.03   0.03
    27   6    -0.03   0.00  -0.01    -0.06   0.00  -0.01    -0.02  -0.03   0.07
    28   6    -0.03  -0.01  -0.01    -0.03   0.02  -0.03    -0.04  -0.08   0.09
    29   6    -0.01  -0.03  -0.00     0.04   0.00  -0.04     0.01  -0.11   0.08
    30   6    -0.02  -0.02  -0.00    -0.01   0.03   0.03    -0.05   0.10   0.11
    31   6    -0.00  -0.02  -0.00     0.05  -0.01   0.00    -0.05   0.07   0.10
    32   6     0.03  -0.04   0.00     0.11  -0.03   0.02    -0.07   0.08   0.07
    33   6     0.00  -0.04   0.00     0.03   0.00   0.04    -0.04   0.10   0.07
    34   6    -0.00  -0.03   0.00    -0.02   0.02   0.08    -0.05   0.12   0.10
    35   6    -0.02  -0.01  -0.00    -0.03   0.03   0.04    -0.01   0.12   0.13
    36   6    -0.02  -0.00  -0.01    -0.04   0.02   0.02    -0.00   0.08   0.10
    37   6    -0.02  -0.01  -0.01    -0.02   0.03  -0.00    -0.02   0.05   0.10
    38   6    -0.03  -0.01  -0.01    -0.02   0.02  -0.01    -0.02  -0.05   0.10
    39   6    -0.02  -0.02  -0.01     0.01   0.03  -0.04     0.00  -0.11   0.12
    40   6    -0.01  -0.02  -0.01     0.04  -0.00  -0.01     0.00  -0.07   0.11
    41   6    -0.03  -0.04  -0.00     0.11   0.03   0.02     0.07   0.08  -0.07
    42   6    -0.00  -0.04  -0.00     0.03  -0.00   0.04     0.04   0.10  -0.07
    43   6     0.00  -0.03  -0.00    -0.02  -0.02   0.08     0.05   0.12  -0.10
    44   6    -0.00  -0.02   0.00    -0.04   0.00   0.09    -0.00   0.10  -0.00
    45   6    -0.00  -0.01   0.00    -0.04   0.00   0.07    -0.00   0.09  -0.00
    46   6    -0.01  -0.00  -0.00    -0.06   0.01   0.04     0.01   0.10   0.07
    47   6    -0.02   0.01  -0.01    -0.06   0.00  -0.01    -0.01   0.03   0.07
    48   6    -0.01   0.01  -0.00    -0.10  -0.01  -0.01     0.02   0.04   0.04
    49   6    -0.01   0.01  -0.00    -0.08  -0.00   0.00     0.01   0.07   0.04
    50   6     0.01   0.01   0.00    -0.08   0.00   0.00    -0.01   0.07  -0.04
    51   6     0.01  -0.00   0.00    -0.06  -0.01   0.04    -0.01   0.10  -0.07
    52   6     0.02  -0.01   0.00    -0.03  -0.03   0.04     0.01   0.12  -0.13
    53   6     0.02  -0.02   0.00    -0.03  -0.03   0.05     0.04   0.14  -0.14
    54   6     0.02  -0.02   0.00    -0.01  -0.03   0.03     0.05   0.10  -0.11
    55   6     0.00  -0.02   0.00     0.05   0.01   0.00     0.05   0.07  -0.10
    56   6    -0.01  -0.02  -0.01     0.09  -0.02  -0.00     0.04  -0.08   0.09
    57   6     0.01  -0.02   0.01     0.09   0.02  -0.00    -0.04  -0.08  -0.09
    58   6    -0.02  -0.02  -0.00    -0.03   0.03   0.05    -0.04   0.14   0.14
    59   6     0.01  -0.00   0.01     0.14  -0.02   0.03    -0.01   0.00   0.05
    60   6    -0.01  -0.00  -0.01     0.14   0.02   0.03     0.01   0.00  -0.05
    61   6     0.01   0.11  -0.05     0.18   0.00   0.11     0.00   0.01  -0.00
    62   6    -0.01   0.11   0.05     0.18  -0.00   0.11    -0.00   0.01   0.00
    63   6     0.13   0.02  -0.03    -0.00  -0.01  -0.08     0.01   0.00  -0.01
    64   1     0.24  -0.08   0.01     0.08   0.06  -0.23     0.01   0.00  -0.01
    65   1     0.23   0.15  -0.01    -0.16  -0.09   0.01     0.01   0.00  -0.01
    66   1     0.06  -0.07  -0.04    -0.09  -0.02  -0.18     0.00  -0.01  -0.01
    67   6    -0.13   0.02   0.03    -0.00   0.01  -0.08    -0.01   0.00   0.01
    68   1    -0.24  -0.08  -0.01     0.08  -0.06  -0.23    -0.01   0.00   0.01
    69   1    -0.06  -0.07   0.04    -0.09   0.02  -0.18    -0.00  -0.01   0.01
    70   1    -0.23   0.15   0.01    -0.16   0.09   0.01    -0.01   0.00   0.01
    71   6     0.03   0.16   0.13     0.17   0.02   0.12     0.00   0.01   0.01
    72   1    -0.02   0.35   0.10     0.10   0.08   0.12     0.02   0.00   0.01
    73   1     0.14   0.13   0.30     0.20   0.01   0.18     0.00   0.01   0.00
    74   6    -0.03   0.16  -0.13     0.17  -0.02   0.12    -0.00   0.01  -0.01
    75   1    -0.14   0.13  -0.30     0.20  -0.01   0.18    -0.00   0.01  -0.00
    76   1     0.02   0.35  -0.10     0.10  -0.08   0.12    -0.02   0.00  -0.01
                     10                     11                     12
                      A                      A                      A
 Frequencies --    246.4232               254.8256               257.8139
 Red. masses --     11.6826                10.7202                11.9048
 Frc consts  --      0.4180                 0.4101                 0.4662
 IR Inten    --      0.0000                 0.0000                 0.0000
  Atom  AN      X      Y      Z        X      Y      Z        X      Y      Z
     1   6     0.02   0.06  -0.06     0.08  -0.05  -0.00     0.09  -0.01  -0.03
     2   6     0.02   0.07  -0.07     0.07   0.04   0.03     0.08   0.01   0.06
     3   6    -0.01   0.02  -0.14     0.03   0.04   0.04     0.10   0.03   0.12
     4   6     0.02  -0.00  -0.17     0.00   0.03   0.00     0.10   0.00   0.08
     5   6     0.04  -0.00  -0.14     0.00  -0.04  -0.00     0.13   0.00  -0.04
     6   6     0.06   0.02  -0.10     0.05  -0.05  -0.02     0.13  -0.03  -0.08
     7   6    -0.00   0.14  -0.02     0.11  -0.08  -0.01     0.06  -0.04  -0.04
     8   6     0.00   0.21   0.01     0.10   0.00   0.02     0.04  -0.00   0.01
     9   6     0.02   0.17  -0.01     0.10   0.08   0.05     0.04   0.03   0.05
    10   6     0.03   0.15   0.01     0.12   0.13   0.04     0.04   0.02   0.09
    11   6    -0.03   0.00  -0.12     0.04   0.07   0.02     0.11   0.01   0.16
    12   6    -0.01  -0.02  -0.14    -0.03   0.04  -0.04     0.10  -0.03   0.12
    13   6     0.02  -0.07  -0.07    -0.07   0.04  -0.03     0.08  -0.01   0.06
    14   6     0.02  -0.06  -0.06    -0.08  -0.05   0.00     0.09   0.01  -0.03
    15   6     0.06  -0.02  -0.10    -0.05  -0.05   0.02     0.13   0.03  -0.08
    16   6     0.06  -0.00  -0.06    -0.04  -0.08   0.00     0.18   0.01  -0.11
    17   6     0.06   0.00  -0.06     0.04  -0.08  -0.00     0.18  -0.01  -0.11
    18   6     0.04   0.05  -0.02     0.10  -0.10  -0.00     0.10  -0.03  -0.10
    19   6    -0.01   0.10  -0.00     0.14  -0.13   0.01     0.06  -0.02  -0.07
    20   6     0.00   0.21  -0.00     0.10   0.00   0.02    -0.04  -0.01  -0.00
    21   6    -0.01   0.14   0.01     0.10  -0.08   0.05    -0.04   0.03  -0.05
    22   6    -0.01   0.10  -0.00     0.13  -0.13   0.04    -0.04   0.02  -0.09
    23   6     0.03   0.05   0.03     0.09  -0.10   0.04    -0.07   0.03  -0.14
    24   6     0.06   0.01   0.01     0.05  -0.10   0.01     0.01   0.00  -0.11
    25   6     0.06  -0.01   0.01    -0.05  -0.10  -0.01     0.01  -0.00  -0.11
    26   6     0.04  -0.05  -0.02    -0.10  -0.10   0.00     0.10   0.03  -0.10
    27   6    -0.01  -0.10  -0.00    -0.14  -0.13  -0.01     0.06   0.02  -0.07
    28   6    -0.00  -0.14  -0.02    -0.11  -0.08   0.01     0.06   0.04  -0.04
    29   6    -0.03  -0.00  -0.12    -0.04   0.07  -0.02     0.11  -0.01   0.16
    30   6     0.01  -0.16   0.02    -0.11   0.08   0.01    -0.06   0.04   0.04
    31   6     0.02  -0.15   0.01    -0.13   0.13  -0.01    -0.06   0.02   0.07
    32   6    -0.04  -0.07   0.04    -0.10   0.11   0.01    -0.08   0.03   0.09
    33   6    -0.08  -0.00   0.11    -0.04   0.07  -0.00    -0.15   0.01   0.10
    34   6    -0.07  -0.02   0.13    -0.05   0.04   0.02    -0.13   0.03   0.08
    35   6    -0.01  -0.06   0.07    -0.07  -0.05  -0.03    -0.08  -0.00  -0.05
    36   6    -0.01  -0.14   0.01    -0.10  -0.08  -0.05    -0.04  -0.03  -0.05
    37   6     0.00  -0.21  -0.00    -0.10   0.00  -0.02    -0.04   0.01  -0.00
    38   6     0.00  -0.21   0.01    -0.10   0.00  -0.02     0.04   0.00   0.01
    39   6     0.02  -0.17  -0.01    -0.10   0.08  -0.05     0.04  -0.03   0.05
    40   6     0.03  -0.15   0.01    -0.12   0.13  -0.04     0.04  -0.02   0.09
    41   6    -0.04   0.07   0.04     0.10   0.11  -0.01    -0.08  -0.03   0.09
    42   6    -0.08   0.00   0.11     0.04   0.07   0.00    -0.15  -0.01   0.10
    43   6    -0.07   0.02   0.13     0.05   0.04  -0.02    -0.13  -0.03   0.08
    44   6    -0.05   0.00   0.16    -0.00   0.03   0.00    -0.13  -0.00   0.05
    45   6    -0.02   0.00   0.14    -0.00  -0.04  -0.00    -0.10   0.00  -0.07
    46   6     0.02  -0.02   0.11    -0.04  -0.05  -0.04    -0.10  -0.02  -0.11
    47   6    -0.01  -0.10  -0.00    -0.13  -0.13  -0.04    -0.04  -0.02  -0.09
    48   6     0.03  -0.05   0.03    -0.09  -0.10  -0.04    -0.07  -0.03  -0.14
    49   6     0.03  -0.00   0.08    -0.04  -0.08  -0.02    -0.13  -0.01  -0.17
    50   6     0.03   0.00   0.08     0.04  -0.08   0.02    -0.13   0.01  -0.17
    51   6     0.02   0.02   0.11     0.04  -0.05   0.04    -0.10   0.02  -0.11
    52   6    -0.01   0.06   0.07     0.07  -0.05   0.03    -0.08   0.00  -0.05
    53   6    -0.01   0.07   0.07     0.08   0.04  -0.00    -0.10  -0.02   0.03
    54   6     0.01   0.16   0.02     0.11   0.08  -0.01    -0.06  -0.04   0.04
    55   6     0.02   0.15   0.01     0.13   0.13   0.01    -0.06  -0.02   0.07
    56   6    -0.02  -0.08  -0.04    -0.07   0.10  -0.04     0.06  -0.03   0.12
    57   6    -0.02   0.08  -0.04     0.07   0.10   0.04     0.06   0.03   0.12
    58   6    -0.01  -0.07   0.07    -0.08   0.04   0.00    -0.10   0.02   0.03
    59   6    -0.04  -0.02  -0.01    -0.05   0.09  -0.02    -0.00  -0.00   0.08
    60   6    -0.04   0.02  -0.01     0.05   0.09   0.02    -0.00   0.00   0.08
    61   6    -0.04  -0.00  -0.03     0.04   0.03   0.02    -0.01  -0.00  -0.00
    62   6    -0.04   0.00  -0.03    -0.04   0.03  -0.02    -0.01   0.00  -0.00
    63   6     0.00   0.01   0.02     0.00   0.01  -0.04    -0.00   0.00   0.01
    64   1    -0.03  -0.01   0.07     0.01   0.06  -0.10    -0.01  -0.00   0.03
    65   1     0.04   0.03  -0.00    -0.04  -0.04  -0.05     0.01   0.01   0.00
    66   1     0.03   0.02   0.05    -0.01  -0.00  -0.04     0.01   0.00   0.02
    67   6     0.00  -0.01   0.02    -0.00   0.01   0.04    -0.00  -0.00   0.01
    68   1    -0.03   0.01   0.07    -0.01   0.06   0.10    -0.01   0.00   0.03
    69   1     0.03  -0.02   0.05     0.01  -0.00   0.04     0.01  -0.00   0.02
    70   1     0.04  -0.03  -0.00     0.04  -0.04   0.05     0.01  -0.01   0.00
    71   6    -0.03   0.00  -0.02    -0.07   0.03  -0.06     0.01  -0.01   0.01
    72   1    -0.02   0.01  -0.03    -0.07  -0.05  -0.04     0.04  -0.03   0.01
    73   1    -0.03   0.00  -0.01    -0.11   0.04  -0.12    -0.00  -0.00  -0.01
    74   6    -0.03  -0.00  -0.02     0.07   0.03   0.06     0.00   0.01   0.01
    75   1    -0.03  -0.00  -0.01     0.11   0.04   0.12    -0.00   0.00  -0.01
    76   1    -0.02  -0.01  -0.03     0.07  -0.05   0.04     0.04   0.03   0.01
                     13                     14                     15
                      A                      A                      A
 Frequencies --    299.3256               316.1203               321.0875
 Red. masses --      5.2236                 3.8643                 6.9057
 Frc consts  --      0.2757                 0.2275                 0.4195
 IR Inten    --      0.0000                 0.0000                 0.0000
  Atom  AN      X      Y      Z        X      Y      Z        X      Y      Z
     1   6     0.04  -0.04  -0.05    -0.02   0.00   0.03     0.01   0.02   0.03
     2   6     0.04  -0.02  -0.01    -0.02   0.00  -0.00     0.00   0.09   0.08
     3   6     0.05   0.00   0.02    -0.02  -0.01  -0.04     0.01   0.07   0.07
     4   6     0.04  -0.00  -0.02    -0.03  -0.00  -0.02    -0.00   0.06   0.00
     5   6     0.05  -0.00  -0.09    -0.05   0.00   0.07    -0.00   0.01   0.00
     6   6     0.03  -0.02  -0.08    -0.04   0.01   0.07     0.01   0.00  -0.00
     7   6     0.02  -0.04  -0.04    -0.00  -0.01   0.02     0.04  -0.01   0.00
     8   6     0.02  -0.03  -0.01    -0.00  -0.01   0.00     0.02   0.04   0.00
     9   6     0.03  -0.00  -0.00    -0.00   0.00  -0.00     0.00   0.07   0.04
    10   6     0.03  -0.00   0.01     0.02   0.03   0.00    -0.05  -0.01   0.01
    11   6     0.06   0.00   0.05    -0.03  -0.00  -0.06    -0.00   0.03   0.04
    12   6     0.05  -0.00   0.02    -0.02   0.01  -0.04    -0.01   0.07  -0.07
    13   6     0.04   0.02  -0.01    -0.02  -0.00  -0.00    -0.00   0.09  -0.08
    14   6     0.04   0.04  -0.05    -0.02  -0.00   0.03    -0.01   0.02  -0.03
    15   6     0.03   0.02  -0.08    -0.04  -0.01   0.07    -0.01   0.00   0.00
    16   6    -0.02   0.00  -0.04    -0.03  -0.00   0.05    -0.04  -0.05   0.01
    17   6    -0.02  -0.00  -0.04    -0.03   0.00   0.05     0.04  -0.05  -0.01
    18   6    -0.09   0.01  -0.02     0.03  -0.02   0.02     0.10  -0.08  -0.02
    19   6    -0.03  -0.02  -0.01     0.03  -0.03   0.01     0.10  -0.09  -0.01
    20   6     0.02  -0.03   0.01    -0.00  -0.01   0.00    -0.01   0.06  -0.02
    21   6     0.00  -0.04   0.04     0.01  -0.01  -0.01     0.01   0.05  -0.04
    22   6    -0.03  -0.02   0.00     0.03  -0.03   0.00     0.06  -0.05  -0.00
    23   6    -0.08   0.00  -0.00     0.04  -0.02  -0.01     0.05  -0.05   0.01
    24   6    -0.14   0.01  -0.02     0.06  -0.01   0.01     0.06  -0.08  -0.00
    25   6    -0.14  -0.01  -0.02     0.06   0.01   0.01    -0.06  -0.08   0.00
    26   6    -0.09  -0.01  -0.02     0.03   0.02   0.02    -0.10  -0.08   0.02
    27   6    -0.03   0.02  -0.01     0.03   0.03   0.01    -0.10  -0.09   0.01
    28   6     0.02   0.04  -0.04    -0.00   0.01   0.02    -0.04  -0.01  -0.00
    29   6     0.06  -0.00   0.05    -0.03   0.00  -0.06     0.00   0.03  -0.04
    30   6     0.03   0.00   0.00    -0.00  -0.01   0.00     0.02   0.04   0.03
    31   6     0.03   0.00   0.00     0.01  -0.03   0.01     0.10  -0.05  -0.00
    32   6     0.01   0.01  -0.01     0.02  -0.03   0.02     0.14  -0.08  -0.02
    33   6     0.08  -0.00  -0.03    -0.05   0.00   0.05     0.03  -0.01   0.01
    34   6     0.06  -0.00  -0.01    -0.04   0.01   0.03    -0.00   0.05   0.03
    35   6     0.02   0.03   0.06    -0.01  -0.00  -0.03    -0.00   0.08   0.08
    36   6     0.00   0.04   0.04     0.01   0.01  -0.01    -0.01   0.05   0.04
    37   6     0.02   0.03   0.01    -0.00   0.01   0.00     0.01   0.06   0.01
    38   6     0.02   0.03  -0.01    -0.00   0.01   0.00    -0.02   0.04  -0.00
    39   6     0.03   0.00  -0.00    -0.00  -0.00  -0.00    -0.00   0.07  -0.04
    40   6     0.03   0.00   0.01     0.02  -0.03   0.00     0.05  -0.01  -0.01
    41   6     0.01  -0.01  -0.01     0.02   0.03   0.02    -0.14  -0.08   0.02
    42   6     0.08   0.00  -0.03    -0.05  -0.00   0.05    -0.03  -0.01  -0.01
    43   6     0.06   0.00  -0.01    -0.04  -0.01   0.03     0.00   0.05  -0.03
    44   6     0.04   0.00   0.02    -0.03   0.00   0.01    -0.00   0.05   0.00
    45   6     0.02   0.00   0.10    -0.02  -0.00  -0.08    -0.00   0.05   0.00
    46   6     0.00   0.02   0.09    -0.01  -0.01  -0.08     0.00   0.06   0.05
    47   6    -0.03   0.02   0.00     0.03   0.03   0.00    -0.06  -0.05   0.00
    48   6    -0.08  -0.00  -0.00     0.04   0.02  -0.01    -0.05  -0.05  -0.01
    49   6    -0.03   0.00   0.04    -0.00  -0.00  -0.06    -0.01   0.00   0.02
    50   6    -0.03  -0.00   0.04    -0.00   0.00  -0.06     0.01   0.00  -0.02
    51   6     0.00  -0.02   0.09    -0.01   0.01  -0.08    -0.00   0.06  -0.05
    52   6     0.02  -0.03   0.06    -0.01   0.00  -0.03     0.00   0.08  -0.08
    53   6     0.03  -0.02   0.02    -0.02   0.00   0.00     0.01   0.07  -0.06
    54   6     0.03  -0.00   0.00    -0.00   0.01   0.00    -0.02   0.04  -0.03
    55   6     0.03  -0.00   0.00     0.01   0.03   0.01    -0.10  -0.05   0.00
    56   6     0.01   0.00   0.01     0.02  -0.02  -0.01     0.04  -0.02   0.01
    57   6     0.01  -0.00   0.01     0.02   0.02  -0.01    -0.04  -0.02  -0.01
    58   6     0.03   0.02   0.02    -0.02  -0.00   0.00    -0.01   0.07   0.06
    59   6    -0.04   0.01  -0.00     0.03  -0.01   0.00     0.09  -0.09   0.02
    60   6    -0.04  -0.01  -0.00     0.03   0.01   0.00    -0.09  -0.09  -0.02
    61   6    -0.11   0.00  -0.12     0.05   0.00  -0.08    -0.08  -0.11  -0.04
    62   6    -0.11  -0.00  -0.12     0.05  -0.00  -0.08     0.08  -0.11   0.04
    63   6    -0.06   0.16   0.10    -0.03   0.21   0.05    -0.06  -0.01   0.10
    64   1    -0.22   0.11   0.29    -0.18   0.22   0.17    -0.13  -0.08   0.24
    65   1     0.01   0.20   0.07    -0.09   0.19   0.08    -0.02   0.07   0.13
    66   1     0.08   0.28   0.15     0.08   0.37   0.03     0.01   0.10   0.08
    67   6    -0.06  -0.16   0.10    -0.03  -0.21   0.05     0.06  -0.01  -0.10
    68   1    -0.22  -0.11   0.29    -0.18  -0.22   0.17     0.13  -0.08  -0.24
    69   1     0.08  -0.28   0.15     0.08  -0.37   0.03    -0.01   0.10  -0.08
    70   1     0.01  -0.20   0.07    -0.09  -0.19   0.08     0.02   0.07  -0.13
    71   6    -0.05   0.03  -0.04     0.06   0.07   0.01     0.11  -0.05   0.12
    72   1     0.01   0.07  -0.06     0.08   0.18  -0.02     0.10   0.10   0.09
    73   1    -0.06   0.03  -0.00     0.09   0.06   0.12     0.13  -0.07   0.26
    74   6    -0.05  -0.03  -0.04     0.06  -0.07   0.01    -0.11  -0.05  -0.12
    75   1    -0.06  -0.03  -0.00     0.09  -0.06   0.12    -0.13  -0.07  -0.26
    76   1     0.01  -0.07  -0.06     0.08  -0.18  -0.02    -0.10   0.10  -0.09
                     16                     17                     18
                      A                      A                      A
 Frequencies --    326.4521               329.3298               335.1749
 Red. masses --     11.5011                 8.5522                11.9559
 Frc consts  --      0.7222                 0.5465                 0.7914
 IR Inten    --      0.0000                 0.0000                 0.0000
  Atom  AN      X      Y      Z        X      Y      Z        X      Y      Z
     1   6    -0.06   0.13   0.12     0.03  -0.05  -0.00     0.02  -0.14  -0.07
     2   6    -0.03  -0.00   0.00     0.03   0.02   0.00     0.00  -0.14  -0.07
     3   6    -0.01  -0.03  -0.06    -0.01  -0.01  -0.05     0.03  -0.03   0.11
     4   6    -0.00  -0.00  -0.00    -0.02  -0.00  -0.05    -0.01  -0.00   0.19
     5   6    -0.00   0.09  -0.00    -0.04  -0.00   0.03    -0.05  -0.00   0.17
     6   6    -0.07   0.11   0.11    -0.04   0.00   0.04    -0.05  -0.04   0.08
     7   6    -0.06   0.12   0.09     0.07  -0.12  -0.03     0.05  -0.17  -0.08
     8   6    -0.04   0.04   0.03     0.05  -0.03   0.00     0.02  -0.13  -0.10
     9   6    -0.04  -0.05  -0.03     0.06   0.08   0.04    -0.03  -0.17  -0.10
    10   6    -0.09  -0.10  -0.10     0.09   0.15   0.02    -0.00  -0.07  -0.06
    11   6    -0.04  -0.07  -0.09    -0.03  -0.00  -0.10     0.05  -0.00   0.09
    12   6     0.01  -0.03   0.06    -0.01   0.01  -0.05     0.03   0.03   0.11
    13   6     0.03  -0.00  -0.00     0.03  -0.02   0.00     0.00   0.14  -0.07
    14   6     0.06   0.13  -0.12     0.03   0.05  -0.00     0.02   0.14  -0.07
    15   6     0.07   0.11  -0.11    -0.04  -0.00   0.04    -0.05   0.04   0.08
    16   6     0.06   0.08  -0.08    -0.09  -0.00   0.07    -0.06   0.01   0.05
    17   6    -0.06   0.08   0.08    -0.09   0.00   0.07    -0.06  -0.01   0.05
    18   6    -0.06   0.03   0.06    -0.05  -0.06   0.02    -0.01  -0.03   0.01
    19   6    -0.03   0.03   0.09     0.07  -0.16   0.01     0.01  -0.05  -0.05
    20   6     0.03   0.01   0.03     0.05  -0.04   0.01     0.02   0.13  -0.10
    21   6     0.05  -0.10   0.09     0.05  -0.13   0.05    -0.02   0.16  -0.10
    22   6     0.08  -0.10   0.12     0.07  -0.16   0.03     0.01   0.05  -0.05
    23   6     0.10  -0.10   0.12    -0.04  -0.06  -0.03     0.00   0.03   0.01
    24   6     0.02  -0.04   0.07    -0.11  -0.01  -0.02    -0.00  -0.00   0.01
    25   6    -0.02  -0.04  -0.07    -0.11   0.01  -0.02    -0.00   0.00   0.01
    26   6     0.06   0.03  -0.06    -0.05   0.06   0.02    -0.01   0.03   0.01
    27   6     0.04   0.03  -0.09     0.07   0.16   0.01     0.01   0.05  -0.05
    28   6     0.06   0.12  -0.09     0.07   0.12  -0.03     0.05   0.17  -0.08
    29   6     0.04  -0.07   0.09    -0.03   0.00  -0.10     0.05   0.00   0.09
    30   6    -0.05   0.10   0.05     0.07  -0.07  -0.02     0.06  -0.17  -0.08
    31   6    -0.04   0.05   0.07     0.09  -0.14   0.01     0.03  -0.07  -0.05
    32   6    -0.06   0.05   0.09    -0.01  -0.05   0.02     0.01  -0.04   0.01
    33   6    -0.06   0.08   0.09    -0.07   0.00   0.08    -0.08  -0.00   0.06
    34   6    -0.05   0.08   0.10    -0.02   0.01   0.03    -0.07  -0.03   0.09
    35   6    -0.03  -0.07  -0.07     0.03   0.05   0.01     0.01  -0.14  -0.07
    36   6    -0.05  -0.10  -0.09     0.05   0.13   0.05    -0.02  -0.16  -0.10
    37   6    -0.03   0.01  -0.03     0.05   0.04   0.01     0.02  -0.13  -0.10
    38   6     0.04   0.04  -0.03     0.05   0.03   0.00     0.02   0.13  -0.10
    39   6     0.04  -0.05   0.03     0.06  -0.08   0.04    -0.03   0.17  -0.10
    40   6     0.09  -0.10   0.10     0.09  -0.15   0.02    -0.00   0.07  -0.06
    41   6     0.06   0.05  -0.09    -0.01   0.05   0.02     0.01   0.04   0.01
    42   6     0.06   0.08  -0.09    -0.07  -0.00   0.08    -0.08   0.00   0.06
    43   6     0.05   0.08  -0.10    -0.02  -0.01   0.03    -0.07   0.03   0.09
    44   6    -0.00   0.05   0.00    -0.04  -0.00   0.03    -0.06  -0.00   0.18
    45   6    -0.00  -0.05  -0.00    -0.02  -0.00  -0.06    -0.02  -0.00   0.17
    46   6    -0.03  -0.08  -0.10    -0.02   0.00  -0.05     0.02  -0.04   0.10
    47   6    -0.08  -0.10  -0.12     0.07   0.16   0.03     0.01  -0.05  -0.05
    48   6    -0.10  -0.10  -0.12    -0.04   0.06  -0.03     0.00  -0.03   0.01
    49   6    -0.05  -0.10  -0.09    -0.05  -0.00  -0.09     0.04  -0.01   0.07
    50   6     0.05  -0.10   0.09    -0.05   0.00  -0.09     0.04   0.01   0.07
    51   6     0.03  -0.08   0.10    -0.02  -0.00  -0.05     0.02   0.04   0.10
    52   6     0.03  -0.07   0.07     0.03  -0.05   0.01     0.01   0.14  -0.07
    53   6     0.05   0.08  -0.06     0.03   0.02   0.00     0.03   0.14  -0.07
    54   6     0.05   0.10  -0.05     0.07   0.07  -0.02     0.06   0.17  -0.08
    55   6     0.04   0.05  -0.07     0.09   0.14   0.01     0.03   0.07  -0.05
    56   6     0.11  -0.11   0.14    -0.01  -0.06  -0.02    -0.01   0.04   0.01
    57   6    -0.11  -0.11  -0.14    -0.01   0.06  -0.02    -0.01  -0.04   0.01
    58   6    -0.05   0.08   0.06     0.03  -0.02   0.00     0.03  -0.15  -0.07
    59   6     0.03  -0.04   0.07    -0.05  -0.01  -0.00    -0.00  -0.00   0.00
    60   6    -0.03  -0.04  -0.07    -0.05   0.01  -0.00    -0.00   0.00   0.00
    61   6    -0.03  -0.02  -0.01    -0.10  -0.00   0.02    -0.01  -0.00  -0.01
    62   6     0.03  -0.02   0.01    -0.10   0.00   0.02    -0.01   0.00  -0.01
    63   6    -0.01  -0.01   0.02     0.01  -0.14  -0.01     0.01  -0.01  -0.00
    64   1    -0.01  -0.04   0.05     0.09  -0.17  -0.03     0.01  -0.01   0.00
    65   1     0.02   0.01   0.02     0.10  -0.10  -0.06     0.02  -0.00  -0.01
    66   1     0.00  -0.01   0.03    -0.03  -0.25   0.04     0.01  -0.02   0.01
    67   6     0.01  -0.01  -0.02     0.01   0.14  -0.01     0.01   0.01  -0.00
    68   1     0.01  -0.04  -0.05     0.09   0.17  -0.03     0.01   0.01   0.00
    69   1    -0.00  -0.01  -0.03    -0.03   0.25   0.04     0.01   0.02   0.01
    70   1    -0.02   0.01  -0.02     0.10   0.10  -0.06     0.02   0.00  -0.01
    71   6     0.06  -0.01   0.04    -0.07  -0.05  -0.01     0.00   0.00   0.00
    72   1     0.07   0.02   0.03    -0.06  -0.10  -0.00     0.01   0.02   0.00
    73   1     0.06  -0.01   0.07    -0.09  -0.04  -0.07     0.00   0.00   0.02
    74   6    -0.06  -0.01  -0.04    -0.07   0.05  -0.01    -0.00  -0.00   0.00
    75   1    -0.06  -0.01  -0.07    -0.09   0.04  -0.07     0.00  -0.00   0.02
    76   1    -0.08   0.02  -0.03    -0.06   0.10  -0.00     0.01  -0.02   0.00
                     19                     20                     21
                      A                      A                      A
 Frequencies --    336.6064               347.4685               366.7972
 Red. masses --     11.3136                11.4112                 4.4321
 Frc consts  --      0.7553                 0.8117                 0.3513
 IR Inten    --      0.0000                 0.0000                 0.0000
  Atom  AN      X      Y      Z        X      Y      Z        X      Y      Z
     1   6     0.04  -0.05  -0.14    -0.02   0.05   0.07    -0.04   0.04   0.04
     2   6     0.01  -0.05  -0.16    -0.02   0.05   0.07    -0.04   0.01   0.02
     3   6    -0.04  -0.07  -0.16    -0.08   0.01   0.05    -0.03  -0.02  -0.01
     4   6    -0.00  -0.05  -0.00    -0.05   0.00   0.19     0.00  -0.02  -0.00
     5   6     0.00  -0.05  -0.00    -0.06   0.00   0.21     0.00   0.00  -0.00
     6   6     0.08  -0.07  -0.10     0.02   0.02   0.10    -0.00   0.01   0.02
     7   6     0.00   0.10  -0.04    -0.00  -0.02   0.02    -0.01   0.06   0.03
     8   6    -0.00   0.25   0.01    -0.01  -0.00   0.03    -0.02   0.06   0.00
     9   6     0.02   0.11  -0.04    -0.01  -0.01   0.02    -0.05  -0.00   0.00
    10   6     0.01   0.05  -0.01    -0.03  -0.02  -0.06    -0.08  -0.05  -0.01
    11   6    -0.03  -0.07  -0.08    -0.16  -0.02  -0.13    -0.03  -0.03  -0.01
    12   6     0.04  -0.07   0.16    -0.08  -0.01   0.05     0.03  -0.02   0.01
    13   6    -0.01  -0.06   0.16    -0.02  -0.05   0.07     0.04   0.01  -0.02
    14   6    -0.04  -0.05   0.14    -0.02  -0.05   0.07     0.04   0.04  -0.04
    15   6    -0.08  -0.07   0.10     0.02  -0.02   0.10     0.00   0.01  -0.02
    16   6    -0.04  -0.07   0.03     0.19   0.02  -0.05    -0.02  -0.02  -0.00
    17   6     0.04  -0.07  -0.03     0.19  -0.02  -0.05     0.02  -0.02   0.00
    18   6     0.06  -0.03  -0.00     0.15  -0.07  -0.07     0.10  -0.04  -0.01
    19   6    -0.00   0.03  -0.00     0.06  -0.04  -0.04     0.07  -0.02  -0.01
    20   6    -0.00   0.25  -0.00    -0.00   0.00   0.03    -0.01   0.05  -0.01
    21   6    -0.01   0.10   0.05    -0.00   0.01   0.02     0.02   0.06  -0.05
    22   6    -0.00   0.03   0.01    -0.03   0.02  -0.06     0.07  -0.01  -0.00
    23   6     0.06  -0.03   0.04    -0.12   0.06  -0.12     0.08  -0.03   0.02
    24   6     0.04  -0.02   0.01     0.00   0.00  -0.08     0.08  -0.04   0.01
    25   6    -0.04  -0.02  -0.01     0.00  -0.00  -0.08    -0.08  -0.04  -0.01
    26   6    -0.06  -0.03   0.00     0.15   0.07  -0.07    -0.10  -0.04   0.01
    27   6     0.00   0.03   0.00     0.06   0.04  -0.04    -0.07  -0.02   0.01
    28   6    -0.00   0.10   0.04    -0.00   0.02   0.02     0.01   0.06  -0.03
    29   6     0.03  -0.07   0.08    -0.16   0.02  -0.13     0.03  -0.03   0.01
    30   6     0.00   0.11  -0.04     0.01  -0.03   0.01     0.03  -0.02  -0.00
    31   6    -0.01   0.05  -0.00     0.05  -0.03  -0.04     0.06  -0.06  -0.01
    32   6     0.07  -0.02  -0.01     0.12  -0.06  -0.07    -0.00  -0.02  -0.02
    33   6     0.06  -0.06  -0.05     0.20  -0.02  -0.06     0.02  -0.03  -0.03
    34   6     0.10  -0.07  -0.12     0.06   0.00   0.06     0.02  -0.03  -0.03
    35   6     0.02  -0.06  -0.15    -0.00   0.05   0.08    -0.01   0.04   0.06
    36   6     0.01   0.10  -0.05    -0.00  -0.01   0.02    -0.02   0.06   0.05
    37   6     0.00   0.25   0.00    -0.00  -0.00   0.03     0.01   0.05   0.01
    38   6     0.00   0.25  -0.01    -0.01   0.00   0.03     0.02   0.06  -0.00
    39   6    -0.02   0.11   0.04    -0.01   0.01   0.02     0.05  -0.00  -0.00
    40   6    -0.01   0.05   0.01    -0.03   0.02  -0.06     0.08  -0.05   0.01
    41   6    -0.07  -0.02   0.01     0.12   0.06  -0.07     0.00  -0.02   0.02
    42   6    -0.06  -0.06   0.05     0.20   0.02  -0.06    -0.02  -0.03   0.03
    43   6    -0.10  -0.07   0.12     0.06  -0.00   0.06    -0.02  -0.03   0.03
    44   6     0.00  -0.05  -0.00    -0.02   0.00   0.18     0.00  -0.02  -0.00
    45   6     0.00  -0.05  -0.00    -0.02   0.00   0.23     0.00   0.01  -0.00
    46   6    -0.04  -0.07  -0.14    -0.05   0.02   0.09    -0.01   0.02   0.04
    47   6     0.00   0.03  -0.01    -0.03  -0.02  -0.06    -0.07  -0.01   0.00
    48   6    -0.06  -0.03  -0.04    -0.12  -0.06  -0.12    -0.08  -0.03  -0.02
    49   6    -0.03  -0.07  -0.06    -0.15  -0.01  -0.12    -0.02  -0.00   0.02
    50   6     0.03  -0.07   0.06    -0.15   0.01  -0.12     0.02  -0.00  -0.02
    51   6     0.04  -0.07   0.14    -0.05  -0.02   0.09     0.01   0.02  -0.04
    52   6    -0.02  -0.06   0.15    -0.00  -0.05   0.08     0.01   0.04  -0.06
    53   6    -0.05  -0.05   0.15     0.00  -0.04   0.07    -0.01  -0.00  -0.01
    54   6    -0.00   0.11   0.04     0.01   0.03   0.01    -0.03  -0.02   0.00
    55   6     0.01   0.05   0.00     0.05   0.03  -0.04    -0.06  -0.06   0.01
    56   6     0.05  -0.02   0.04    -0.09   0.05  -0.11     0.04  -0.02   0.00
    57   6    -0.05  -0.02  -0.04    -0.09  -0.05  -0.11    -0.04  -0.02  -0.00
    58   6     0.05  -0.05  -0.15     0.00   0.04   0.07     0.01  -0.00   0.01
    59   6     0.03  -0.02   0.01    -0.00   0.00  -0.06    -0.02   0.02  -0.03
    60   6    -0.03  -0.02  -0.01    -0.00  -0.00  -0.06     0.02   0.02   0.03
    61   6    -0.03  -0.04  -0.01    -0.02   0.00  -0.04     0.04   0.12   0.05
    62   6     0.03  -0.04   0.01    -0.02  -0.00  -0.04    -0.04   0.12  -0.05
    63   6    -0.03  -0.01   0.04     0.02  -0.01  -0.01     0.08  -0.03  -0.09
    64   1    -0.06  -0.03   0.09     0.02  -0.03   0.01     0.19   0.03  -0.25
    65   1    -0.02   0.02   0.05     0.07   0.01  -0.04     0.10  -0.08  -0.16
    66   1    -0.00   0.04   0.03     0.04  -0.02   0.01    -0.02  -0.21  -0.04
    67   6     0.03  -0.01  -0.04     0.02   0.01  -0.01    -0.08  -0.03   0.09
    68   1     0.06  -0.03  -0.09     0.01   0.03   0.01    -0.19   0.03   0.25
    69   1     0.00   0.04  -0.03     0.04   0.02   0.01     0.02  -0.21   0.04
    70   1     0.02   0.02  -0.05     0.07  -0.01  -0.04    -0.10  -0.08   0.16
    71   6     0.04  -0.02   0.04    -0.00   0.03   0.00    -0.03   0.01  -0.14
    72   1     0.04   0.03   0.03    -0.01   0.10  -0.01    -0.01  -0.19  -0.10
    73   1     0.03  -0.02   0.09     0.02   0.02   0.08    -0.03   0.03  -0.33
    74   6    -0.04  -0.02  -0.04    -0.00  -0.03   0.00     0.03   0.01   0.14
    75   1    -0.03  -0.02  -0.09     0.02  -0.02   0.08     0.03   0.03   0.33
    76   1    -0.04   0.03  -0.03    -0.01  -0.10  -0.01     0.01  -0.19   0.10
                     22                     23                     24
                      A                      A                      A
 Frequencies --    378.2222               383.8920               385.1020
 Red. masses --      5.7686                11.6056                11.4184
 Frc consts  --      0.4862                 1.0077                 0.9977
 IR Inten    --      0.0000                 0.0000                 0.0000
  Atom  AN      X      Y      Z        X      Y      Z        X      Y      Z
     1   6    -0.01  -0.01   0.04     0.18   0.02   0.07     0.01  -0.01   0.09
     2   6    -0.01   0.01   0.10     0.19   0.03   0.06     0.03   0.02   0.05
     3   6    -0.01  -0.01   0.05     0.10  -0.05   0.00     0.13   0.03   0.02
     4   6    -0.04  -0.00   0.03     0.00  -0.00   0.00     0.17   0.00   0.07
     5   6    -0.04  -0.00  -0.04     0.00   0.00   0.00     0.16   0.00   0.06
     6   6    -0.03  -0.01  -0.06     0.12   0.05   0.02     0.10  -0.04   0.05
     7   6     0.03  -0.04   0.03     0.12   0.01   0.08    -0.13  -0.08   0.05
     8   6     0.04  -0.01   0.08     0.08   0.04   0.05    -0.18  -0.05   0.01
     9   6     0.03  -0.00   0.10     0.14   0.06   0.03    -0.10   0.03  -0.01
    10   6     0.01  -0.02   0.03     0.06  -0.02  -0.04    -0.09   0.08  -0.02
    11   6    -0.02  -0.01  -0.01     0.05  -0.11  -0.05     0.09   0.01  -0.07
    12   6    -0.01   0.01   0.05    -0.10  -0.05  -0.00     0.13  -0.03   0.02
    13   6    -0.01  -0.01   0.10    -0.19   0.03  -0.06     0.03  -0.02   0.05
    14   6    -0.01   0.01   0.04    -0.18   0.02  -0.07     0.01   0.01   0.09
    15   6    -0.03   0.01  -0.06    -0.12   0.05  -0.02     0.10   0.04   0.05
    16   6    -0.03   0.00  -0.08    -0.08   0.08  -0.03     0.12   0.02   0.00
    17   6    -0.03  -0.00  -0.08     0.08   0.08   0.03     0.12  -0.02   0.00
    18   6    -0.03  -0.01  -0.07     0.08   0.03   0.03    -0.06  -0.07  -0.01
    19   6     0.04  -0.04   0.01     0.09   0.01   0.07    -0.10  -0.07  -0.00
    20   6     0.04   0.04   0.08    -0.10  -0.03   0.01    -0.17  -0.02   0.01
    21   6     0.04   0.03   0.08    -0.14   0.01   0.00    -0.09  -0.05  -0.04
    22   6     0.04  -0.00   0.02    -0.09  -0.00   0.03    -0.08  -0.06  -0.02
    23   6     0.01   0.03  -0.03    -0.06  -0.03   0.01    -0.01  -0.06  -0.06
    24   6    -0.06   0.01  -0.09     0.01   0.00   0.04    -0.09  -0.01  -0.06
    25   6    -0.06  -0.01  -0.09    -0.01   0.00  -0.04    -0.09   0.01  -0.06
    26   6    -0.03   0.01  -0.07    -0.08   0.03  -0.03    -0.06   0.07  -0.01
    27   6     0.03   0.04   0.01    -0.09   0.01  -0.07    -0.10   0.07  -0.00
    28   6     0.03   0.04   0.03    -0.12   0.01  -0.08    -0.13   0.08   0.05
    29   6    -0.02   0.01  -0.01    -0.05  -0.11   0.05     0.09  -0.01  -0.07
    30   6     0.03  -0.07   0.01     0.15  -0.07   0.03    -0.12  -0.08   0.02
    31   6    -0.01  -0.02   0.01     0.06   0.02   0.07    -0.09  -0.11  -0.00
    32   6    -0.06   0.00  -0.06    -0.02   0.09   0.07    -0.04  -0.11   0.01
    33   6    -0.08  -0.00  -0.06     0.03   0.11   0.06     0.00  -0.01   0.07
    34   6    -0.05  -0.03  -0.06     0.10   0.03   0.03     0.07  -0.05   0.04
    35   6     0.01  -0.05   0.04     0.20  -0.01   0.03     0.04  -0.03  -0.03
    36   6     0.04  -0.03   0.08     0.14   0.01  -0.00    -0.09   0.05  -0.04
    37   6     0.04  -0.04   0.08     0.10  -0.03  -0.01    -0.17   0.02   0.01
    38   6     0.04   0.01   0.08    -0.08   0.04  -0.05    -0.18   0.05   0.01
    39   6     0.03   0.00   0.10    -0.14   0.06  -0.03    -0.10  -0.03  -0.01
    40   6     0.01   0.02   0.03    -0.06  -0.02   0.04    -0.09  -0.08  -0.02
    41   6    -0.06  -0.00  -0.06     0.02   0.09  -0.07    -0.04   0.11   0.01
    42   6    -0.08   0.00  -0.06    -0.03   0.11  -0.06     0.00   0.01   0.07
    43   6    -0.05   0.03  -0.06    -0.10   0.03  -0.03     0.07   0.05   0.04
    44   6    -0.03  -0.00  -0.06     0.00  -0.02  -0.00     0.17   0.00  -0.01
    45   6    -0.03  -0.00   0.01     0.00  -0.02  -0.00     0.19  -0.00  -0.04
    46   6     0.02  -0.02   0.05     0.11  -0.05   0.05     0.16   0.02  -0.02
    47   6     0.04   0.00   0.02     0.09  -0.00  -0.03    -0.08   0.06  -0.02
    48   6     0.01  -0.03  -0.03     0.06  -0.03  -0.01    -0.01   0.06  -0.06
    49   6     0.03  -0.01   0.01     0.08  -0.08   0.00     0.17   0.01   0.01
    50   6     0.03   0.01   0.01    -0.08  -0.08  -0.00     0.17  -0.01   0.01
    51   6     0.02   0.02   0.05    -0.11  -0.05  -0.05     0.16  -0.02  -0.02
    52   6     0.01   0.05   0.04    -0.20  -0.01  -0.03     0.04   0.03  -0.03
    53   6     0.01   0.07  -0.00    -0.21  -0.04  -0.03     0.03   0.06   0.01
    54   6     0.03   0.07   0.01    -0.15  -0.07  -0.03    -0.12   0.08   0.02
    55   6    -0.01   0.02   0.01    -0.06   0.02  -0.07    -0.09   0.11  -0.00
    56   6    -0.00   0.05  -0.04    -0.01  -0.08   0.07    -0.00  -0.08  -0.08
    57   6    -0.00  -0.05  -0.04     0.01  -0.08  -0.07    -0.00   0.08  -0.08
    58   6     0.01  -0.07  -0.00     0.21  -0.04   0.03     0.03  -0.06   0.01
    59   6    -0.00   0.01  -0.10    -0.02   0.01   0.06    -0.03  -0.04  -0.06
    60   6    -0.00  -0.01  -0.10     0.02   0.01  -0.06    -0.03   0.04  -0.06
    61   6     0.18   0.00   0.11     0.02   0.02   0.01     0.06   0.00   0.03
    62   6     0.18  -0.00   0.11    -0.02   0.02  -0.01     0.06  -0.00   0.03
    63   6    -0.02   0.09  -0.02     0.01   0.01  -0.01     0.01   0.01  -0.02
    64   1    -0.00   0.18  -0.14     0.02   0.02  -0.04     0.03   0.04  -0.06
    65   1    -0.24  -0.02   0.10    -0.00  -0.01  -0.01    -0.04  -0.02   0.01
    66   1    -0.07   0.17  -0.15    -0.00  -0.01  -0.02    -0.01   0.02  -0.05
    67   6    -0.02  -0.09  -0.02    -0.01   0.01   0.01     0.01  -0.01  -0.02
    68   1    -0.00  -0.18  -0.14    -0.02   0.02   0.04     0.03  -0.04  -0.06
    69   1    -0.07  -0.17  -0.15     0.00  -0.01   0.02    -0.01  -0.02  -0.05
    70   1    -0.24   0.02   0.10     0.00  -0.01   0.01    -0.04   0.02   0.01
    71   6     0.00  -0.04  -0.09    -0.01  -0.01  -0.02     0.01   0.03  -0.01
    72   1    -0.11  -0.20  -0.03     0.03  -0.08  -0.01    -0.06   0.08  -0.00
[...]
 0001728,0.00001582,0.00001567,0.00004339,0.00001360,0.00004048,0.00006
 054,-0.00000818,0.00001896,-0.00005503,0.00007572,-0.00011083,-0.00016
 122,0.00018918,0.00022070,0.00014941,-0.00020242,-0.00029387,-0.000257
 07,-0.00051092,-0.00014005,-0.00001298,-0.00056864,-0.00071198,-0.0001
 5011,-0.00048159,-0.00031262,-0.01611354,-0.00369168,0.00223695,-0.000
 03507,0.00005525,0.00002617,0.00174622,-0.00047334,0.00187788,0.025502
 11,0.00876847,-0.05265750,-0.06097241,0.03352363,-0.11686933,-0.001954
 14,0.01537108,-0.00200732,-0.01550534,0.00513357,-0.01331299,0.0002614
 9,0.00047051,0.00014283,-0.00033526,0.00066607,0.00062211,-0.00261994,
 -0.00220063,-0.00122974,-0.00497029,-0.00012838,0.00588762,-0.00093799
 ,0.00108802,-0.00094244,-0.00000986,0.00005617,0.00001790,0.00074215,-
 0.00089636,0.00089708,-0.00019546,-0.00221500,-0.00578578,-0.00058839,
 -0.00349626,0.00066972,0.00000232,-0.00011727,-0.00000053,0.00264272,0
 .01812968,0.48693580,-0.00002111,0.00003891,0.00004509,0.00009045,0.00
 000134,0.00003313,0.00003006,0.00000165,0.00005425,-0.00001648,-0.0000
 2667,-0.00000421,0.00002734,-0.00002184,-0.00001236,0.00001267,0.00004
 167,0.00001521,0.00000955,-0.00001754,-0.00004229,0.00005986,-0.000021
 94,-0.00000564,-0.00018146,0.00002963,-0.00004309,-0.00018776,0.000010
 86,-0.00024555,-0.00009966,-0.00018390,-0.00004840,-0.00000080,0.00005
 530,0.00002645,-0.00000305,0.00001825,-0.00001356,0.00001420,0.0000084
 6,0.00000390,-0.00000498,0.00000593,-0.00001176,-0.00000061,0.00000216
 ,0.00000445,0.00000218,0.00000331,0.00000598,0.00000703,0.00001207,0.0
 0000429,0.00001764,0.00000039,-0.00001404,0.00006132,-0.00002309,-0.00
 002500,0.00001731,-0.00002024,0.00003599,0.00002041,0.00000078,0.00000
 482,0.00000485,0.00000897,-0.00000609,-0.00000382,-0.00000547,0.000002
 27,0.00000553,0.00002056,-0.00000096,0.00000398,-0.00000145,-0.0000015
 2,-0.00000225,0.00000404,0.00000011,-0.00000832,0.00000518,0.00001285,
 0.00007772,0.00002943,0.00003936,-0.00002804,-0.00002009,-0.00006111,-
 0.00011626,-0.00007844,0.00007759,-0.00002414,-0.00058285,-0.00014499,
 0.00008522,0.00003187,-0.00005284,-0.00000133,0.00003813,-0.00002556,0
 .00000418,0.00000943,-0.00000710,-0.00001338,0.00000583,-0.00000493,-0
 .00000143,0.00000999,0.00002637,-0.00001194,0.00001084,-0.00002340,0.0
 0000985,-0.00002055,0.00007125,-0.00016850,-0.00007188,-0.00002889,0.0
 0034623,-0.00136589,0.00003889,-0.00009673,-0.00013744,-0.00008310,-0.
 00004447,-0.00000895,-0.00006322,-0.00001677,-0.00000971,0.00002379,0.
 00002031,-0.00001958,0.00000511,0.00000015,0.00000170,0.00001252,-0.00
 000331,0.00000531,0.00000154,0.00000604,-0.00000176,-0.00000274,-0.000
 00406,-0.00000041,-0.00000365,-0.00000282,0.00000471,-0.00000637,0.000
 00686,0.00003461,-0.00001923,-0.00003344,0.00004690,-0.00002332,0.0000
 7159,-0.00001564,-0.00006508,-0.00013341,0.00000768,0.00009142,-0.0001
 0472,-0.00008500,0.00027491,0.00000337,-0.00062779,0.00010569,0.000172
 12,-0.00103374,0.00007579,-0.00000468,0.00001000,0.00001007,-0.0039218
 8,-0.00222579,0.00077897,-0.00473637,-0.02561730,-0.00221034,-0.001175
 61,0.01920453,0.00137788,-0.00219683,0.00244647,-0.00291402,0.00036256
 ,0.00089847,0.00027996,-0.00097427,-0.00008427,-0.00004328,0.00019894,
 0.00009044,-0.00038197,0.00010658,-0.00008967,0.00021171,0.00025891,0.
 00092647,-0.00032302,-0.00001029,0.00002919,-0.00006264,0.00007013,0.0
 0001957,0.00006700,-0.00012934,0.00015041,-0.00012257,-0.00041597,0.00
 029446,0.00000222,-0.00002667,-0.00009541,-0.00010839,-0.00010888,-0.0
 0001031,-0.00006144,-0.04132417,0.00144563,0.00075335,0.05286372,-0.00
 004388,0.00003505,0.00001107,0.00001527,0.00001725,-0.00002203,0.00007
 142,-0.00006375,0.00004724,0.00004049,0.00000133,0.00003036,-0.0000041
 3,-0.00002051,-0.00002221,-0.00002843,-0.00000454,0.00002328,-0.000001
 14,0.00001397,-0.00000638,0.00001229,-0.00002672,-0.00005690,0.0000276
 3,-0.00001229,0.00003762,0.00007508,0.00014727,0.00009049,-0.00006247,
 -0.00023184,0.00000889,0.00005649,0.00009474,0.00002264,-0.00006082,0.
 00000461,-0.00004953,0.00004572,-0.00000156,0.00001015,-0.00003157,0.0
 0002835,-0.00004012,-0.00000848,0.00000534,0.00001756,0.00000398,0.000
 00879,0.00001275,0.00000073,0.00001814,0.00000399,-0.00001255,-0.00002
 081,0.00003266,0.00001888,-0.00001100,0.00005683,0.00001109,0.00002135
 ,0.00000892,-0.00003283,-0.00003118,-0.00002421,0.00000800,0.00002528,
 -0.00001032,-0.00001468,-0.00001341,0.00000020,0.00001735,0.00002279,-
 0.00000296,0.00000185,0.00000426,0.00000540,-0.00000869,0.00000331,-0.
 00000690,-0.00003064,0.00001076,0.00002984,0.00016702,-0.00001273,0.00
 006547,0.00004437,-0.00005469,-0.00010374,-0.00005398,0.00006054,-0.00
 004210,-0.00001673,-0.00018259,-0.00033085,0.00014577,-0.00004458,-0.0
 0008021,0.00004066,0.00009012,-0.00002646,0.00004475,-0.00000046,-0.00
 002661,-0.00003548,0.00000876,-0.00001408,0.00000971,-0.00000479,0.000
 07288,-0.00001172,0.00000600,-0.00007504,0.00005916,-0.00006070,0.0000
 7586,-0.00000531,0.00008514,0.00004492,0.00049184,0.00024630,-0.000262
 31,-0.00008465,-0.00025015,0.00000996,0.00000487,-0.00007124,-0.000066
 37,0.00003147,0.00000097,-0.00004569,0.00000456,-0.00003112,0.00002397
 ,-0.00001453,0.00003598,0.00005329,-0.00000661,0.00000777,0.00001092,0
 .00000401,0.00000542,-0.00000543,-0.00001705,0.00000385,-0.00000792,-0
 .00000376,0.00000769,-0.00000844,-0.00003531,-0.00000045,-0.00001202,-
 0.00005930,0.00003905,0.00001364,0.00004231,0.00001069,-0.00000785,-0.
 00001552,-0.00001823,-0.00005273,0.00004099,0.00018840,-0.00006453,0.0
 0009921,-0.00023670,0.00028456,0.00019797,0.00005076,-0.00004906,-0.00
 004188,0.00001848,0.00007797,-0.00216140,-0.00108490,0.00033206,-0.003
 96777,-0.01301088,-0.00062927,0.00283341,-0.01754672,0.00009429,0.0024
 4164,-0.00167420,0.00200281,-0.00141627,0.00093246,-0.00114318,0.00045
 435,0.00047367,-0.00003173,-0.00000853,0.00036668,0.00052115,-0.000461
 59,0.00005055,-0.00041788,-0.00023666,-0.00067398,0.00009555,-0.000016
 76,-0.00000120,0.00005729,-0.00000553,0.00003774,-0.00001603,0.0001028
 2,-0.00006149,0.00003477,-0.00010565,0.00000882,0.00011731,-0.00002934
 ,0.00007591,0.00022732,0.00001037,0.00022741,0.00007586,0.00167496,-0.
 27304304,-0.03208508,-0.00115914,0.31574555,-0.00002235,0.00000400,0.0
 0001657,-0.00003448,0.00002037,-0.00000339,0.00002777,0.00000794,-0.00
 003128,-0.00000224,-0.00002385,-0.00000152,0.00001062,0.00000339,0.000
 00130,-0.00000200,0.00001154,0.00000851,0.00003596,-0.00000283,-0.0000
 2031,-0.00000577,0.00000023,-0.00001836,-0.00009449,0.00004383,-0.0000
 8470,-0.00006926,0.00013904,0.00022994,-0.00005068,-0.00008952,-0.0000
 0560,0.00003818,0.00005016,-0.00001190,-0.00001447,-0.00001124,0.00000
 105,0.00000259,0.00000078,-0.00000234,-0.00000386,-0.00000082,-0.00000
 141,0.00000046,0.00000385,-0.00000554,0.00000031,-0.00000044,-0.000006
 93,0.00000518,0.00000397,-0.00000196,-0.00000146,0.00000384,-0.0000007
 1,0.00000463,0.00000284,0.00001726,-0.00006252,0.00000282,-0.00000593,
 -0.00001304,-0.00000756,-0.00000532,-0.00000754,0.00000196,-0.00000118
 ,-0.00000047,-0.00000151,0.00000347,-0.00000103,-0.00000023,0.00000042
 ,0.00000003,0.00000320,-0.00000243,-0.00000035,0.00000002,-0.00000063,
 -0.00000455,-0.00000420,0.00000197,0.00005082,-0.00007685,0.00005034,0
 .00001864,-0.00002111,-0.00000938,-0.00001433,0.00004558,-0.00001730,0
 .00000326,0.00011630,-0.00003325,-0.00000503,0.00008268,0.00001358,-0.
 00002191,-0.00004483,0.00002617,0.00000209,-0.00001362,-0.00000741,-0.
 00000529,0.00000301,-0.00000077,0.00000020,-0.00001060,0.00000395,-0.0
 0000942,-0.00000077,-0.00000753,0.00000337,-0.00000421,-0.00000919,0.0
 0008905,0.00003738,-0.00003052,0.00075248,0.00126856,-0.00005048,0.000
 13123,0.00010003,-0.00004735,0.00001148,-0.00005597,-0.00009008,-0.000
 01911,0.00001712,0.00000264,-0.00001616,-0.00000454,0.00001953,-0.0000
 0760,0.00000521,0.00000674,-0.00000510,0.00000082,0.00000151,-0.000007
 03,-0.00000404,-0.00000722,-0.00000892,-0.00000568,-0.00000413,-0.0000
 0327,0.00000396,-0.00000640,-0.00001868,-0.00001979,0.00001964,0.00001
 847,0.00000841,0.00000749,0.00001112,0.00002038,-0.00002275,0.00003636
 ,0.00000474,-0.00009021,0.00025669,-0.00016155,0.00020784,-0.00003531,
 0.00020407,-0.00002816,-0.00047086,-0.00036216,-0.00008617,-0.00001710
 ,-0.00000098,0.00002515,0.00102978,0.00054134,0.00034632,0.00108551,0.
 00504666,0.00058621,-0.00165024,0.01841679,0.00150605,-0.00291782,0.00
 175802,-0.00209909,0.00012802,0.00082903,0.00050749,-0.00030896,0.0000
 8405,0.00022433,-0.00004126,0.00012545,-0.00076041,0.00017848,-0.00003
 784,0.00004167,-0.00009529,0.00097335,-0.00003909,-0.00009108,0.000121
 40,-0.00009844,0.00007445,-0.00000151,0.00007728,-0.00004552,0.0000657
 8,-0.00002381,-0.00002695,-0.00071612,-0.00000003,-0.00004211,0.000168
 33,0.00018284,-0.00006145,-0.00007580,0.00010320,0.00044713,-0.0333390
 7,-0.04811554,0.00059343,0.03611369,0.05572286,-0.00001896,-0.00000294
 ,0.00000221,0.00004829,-0.00006504,-0.00000291,-0.00011636,0.00005849,
 0.00003497,0.00013784,-0.00003976,0.00001340,0.00000686,0.00001284,0.0
 0000731,0.00001991,-0.00001166,-0.00000580,0.00004571,-0.00000121,-0.0
 0003017,0.00002784,0.00000470,-0.00002321,0.00006235,-0.00003910,0.000
 06637,-0.00026135,0.00005648,0.00031304,-0.00007244,-0.00019592,-0.000
 14948,-0.00009815,0.00003139,-0.00003417,0.00004480,0.00008288,-0.0000
 0633,0.00000170,0.00000647,-0.00001371,0.00002815,0.00000956,0.0000049
 3,-0.00001307,0.00000847,-0.00001061,-0.00000638,-0.00001632,-0.000004
 17,0.00002035,-0.00000015,-0.00001243,0.00000244,-0.00000842,-0.000009
 57,0.00006681,-0.00005086,-0.00000031,-0.00004893,-0.00000782,-0.00001
 336,0.00003308,0.00001275,0.00000433,-0.00003004,-0.00001780,0.0000105
 4,0.00001685,0.00000022,0.00001238,-0.00000405,-0.00001538,0.00000297,
 0.00001965,0.00000969,-0.00000830,0.00000475,0.00000730,0.00000560,0.0
 0003445,-0.00000730,-0.00000985,-0.00000219,-0.00011933,-0.00004931,0.
 00000423,-0.00000657,0.00003906,0.00006576,0.00010189,-0.00005653,-0.0
 0001214,-0.00008954,0.00013223,-0.00022588,0.00034618,-0.00020822,-0.0
 0006298,0.00004218,0.00004429,-0.00001733,-0.00000476,0.00000695,-0.00
 000006,0.00000533,0.00000191,0.00000002,0.00002543,-0.00002235,-0.0000
 2745,-0.00001983,0.00000710,0.00007598,0.00006336,0.00001791,-0.000028
 98,-0.00001514,0.00005471,-0.00485528,-0.00240013,0.00072591,-0.000168
 78,0.00024682,0.00090478,0.00034491,0.00000349,0.00018936,0.00004257,-
 0.00003587,-0.00005021,-0.00004575,0.00004745,-0.00003504,-0.00000257,
 -0.00000103,-0.00003480,-0.00000748,0.00000374,-0.00001370,-0.00000973
 ,-0.00000187,-0.00000786,-0.00000992,0.00000077,-0.00001401,-0.0000025
 3,-0.00000878,-0.00001841,0.00000927,-0.00004579,0.00006212,0.00009823
 ,-0.00006842,-0.00010068,-0.00005763,0.00010692,0.00012303,0.00013390,
 0.00011349,-0.00008593,-0.00009973,0.00026332,0.00012932,0.00009151,0.
 00002774,0.00002066,0.00061128,0.00028250,0.00144022,0.00002856,-0.000
 01420,-0.00003054,0.00004820,0.00121374,0.00029301,-0.01556927,0.00282
 096,0.02612740,0.00191434,0.00060714,-0.02033027,0.00039717,-0.0017100
 0,-0.00125573,-0.00147409,0.00090947,-0.00151621,-0.00003538,-0.000053
 16,0.00002947,-0.00001734,0.00005601,0.00015982,-0.00049854,-0.0003061
 4,-0.00020833,-0.00097254,0.00025425,0.00071049,-0.00016399,0.00017231
 ,-0.00011913,0.00000651,0.00000234,0.00000350,0.00007959,-0.00017078,0
 .00014597,0.00107573,-0.00001353,-0.00058830,0.00021543,-0.00030972,0.
 00007361,-0.00002678,0.00002932,-0.00004199,-0.04616825,0.01034604,0.0
 4924430,0.00131115,0.00095836,0.00128859,0.06405614,0.00001721,0.00000
 274,-0.00001445,0.00004836,-0.00004092,-0.00000970,-0.00000589,-0.0000
 6743,0.00007627,0.00002950,0.00001407,0.00000291,0.00000417,0.00000160
 ,-0.00000952,-0.00000388,-0.00001607,-0.00000217,-0.00003205,-0.000004
 87,0.00000879,0.00000907,-0.00000192,-0.00000701,0.00001460,-0.0000236
 3,0.00005109,-0.00002127,-0.00012163,-0.00010543,0.00002741,0.00010208
 ,0.00003967,-0.00009158,-0.00007800,-0.00001464,0.00003255,0.00004753,
 -0.00002304,-0.00002007,-0.00000201,0.00001140,0.00001560,-0.00001015,
 0.00000117,-0.00000903,-0.00000186,0.00001219,0.00000558,-0.00000288,0
 .00000040,-0.00000543,-0.00000642,-0.00000511,0.00000649,0.00000377,-0
 .00000371,0.00002278,0.00001304,0.00000690,0.00001120,-0.00001282,0.00
 001604,0.00000772,-0.00000039,0.00000734,0.00000972,0.00000155,0.00000
 206,0.00000019,-0.00000612,-0.00000108,0.00000007,-0.00000215,0.000005
 21,0.00000215,0.00000245,-0.00000605,0.00000350,-0.00000313,-0.0000009
 7,0.00001446,0.00000432,-0.00001361,-0.00004630,0.00012967,-0.00006297
 ,0.00001069,0.00003165,-0.00000327,-0.00000083,0.00004148,-0.00001445,
 0.00002435,-0.00003001,0.00009874,-0.00001585,0.00003487,-0.00009681,-
 0.00001457,0.00002319,-0.00002164,-0.00000036,0.00000083,0.00000303,0.
 00000616,-0.00000293,-0.00000039,-0.00000473,-0.00000853,-0.00001417,0
 .00000711,0.00000824,0.00001651,0.00003599,0.00002044,0.00001093,-0.00
 002760,-0.00007996,0.00006010,-0.00124932,-0.00005364,0.00006524,-0.00
 002371,-0.00005032,0.00033711,0.00011849,0.00000386,0.00001524,-0.0000
 2379,-0.00003459,-0.00000395,0.00003506,0.00000018,-0.00001847,0.00000
 388,-0.00000340,-0.00000493,0.00000039,0.00000341,-0.00000126,-0.00000
 042,0.00000215,0.00000230,0.00000052,0.00000620,-0.00000022,0.00000729
 ,-0.00000286,0.00000333,0.00000866,0.00002279,-0.00001367,-0.00002809,
 -0.00002527,-0.00001015,0.00000202,0.00004619,-0.00002767,-0.00009615,
 0.00009212,0.00015467,-0.00009593,0.00025579,-0.00000213,-0.00010180,-
 0.00002378,-0.00000369,0.00071023,0.00025229,-0.00007766,0.00001835,0.
 00000788,-0.00001935,-0.00009189,0.00058874,-0.00008637,-0.00473462,0.
 00195145,0.00877569,-0.00293352,0.00388439,0.01091843,-0.00049250,-0.0
 0180164,0.00011928,0.00046283,-0.00024408,0.00053651,-0.00003033,-0.00
 011657,-0.00013824,-0.00001676,-0.00000560,0.00019742,0.00010173,0.000
 22042,0.00015408,0.00071609,-0.00028971,-0.00057576,0.00015824,-0.0001
 7270,0.00009578,-0.00005045,0.00001324,-0.00006325,-0.00002430,0.00014
 873,-0.00006633,0.00057801,-0.00100584,0.00349588,0.00031032,-0.001389
 47,-0.00096114,0.00009534,0.00007588,-0.00016814,0.01241421,-0.0525051
 0,-0.04196199,0.00766223,-0.01074486,-0.03136666,-0.01347750,0.0609340
 4,0.00000145,-0.00001338,-0.00000191,0.00003282,-0.00003640,-0.0000329
 7,0.00002951,0.00008397,-0.00005685,-0.00003654,0.00002826,0.00001954,
 0.00005712,0.00001038,-0.00002111,0.00001070,0.00002148,0.00002425,-0.
 00001152,0.00000292,0.00001107,-0.00003251,-0.00002638,0.00006045,-0.0
 0010844,0.00003196,-0.00006662,0.00005493,0.00003371,-0.00030440,0.000
 02116,-0.00001797,0.00019358,0.00003345,0.00002771,0.00003743,0.000032
 03,-0.00001732,-0.00001737,-0.00000501,0.00000441,0.00000633,-0.000006
 20,-0.00000707,0.00000945,0.00002360,0.00001194,-0.00000312,0.00001619
 ,0.00000739,0.00000371,-0.00002257,-0.00000909,-0.00000614,0.00002244,
 0.00001992,0.00000900,-0.00009218,0.00007764,-0.00006405,0.00003104,0.
 00000629,0.00001831,-0.00001557,-0.00001643,-0.00000943,0.00003080,-0.
 00000442,0.00000049,-0.00000315,0.00001690,0.00000642,0.00000333,0.000
 00297,0.00000527,-0.00002881,-0.00000061,0.00000006,0.00000407,-0.0000
 1787,-0.00000156,0.00000041,-0.00000435,0.00000135,-0.00006718,-0.0000
 6693,0.00005261,-0.00004195,0.00003790,0.00002733,-0.00003467,-0.00006
 780,0.00007625,0.00000610,0.00003278,-0.00010774,0.00012473,-0.0002857
 9,0.00014942,-0.00000873,-0.00001971,0.00002276,0.00001854,0.00002916,
 0.00001275,0.00001288,-0.00000845,0.00000546,-0.00000877,-0.00004584,-
 0.00000455,0.00001093,0.00003629,0.00001053,-0.00007959,-0.00001574,-0
 .00001236,-0.00001017,-0.00000556,-0.00005556,0.00208108,0.00074048,0.
 00003624,-0.00005591,-0.00005241,-0.00006826,-0.00015357,0.00002382,0.
 00000066,-0.00007916,0.00001510,0.00007989,0.00000768,-0.00000901,-0.0
 0002330,0.00001803,0.00000101,0.00000972,0.00000211,0.00000437,0.00001
 206,0.00001262,0.00000886,0.00001083,0.00001772,-0.00000528,0.00001369
 ,0.00001379,0.00002745,0.00001986,0.00001548,0.00000858,-0.00004643,-0
 .00002345,0.00000165,0.00006079,-0.00002527,-0.00003551,-0.00003435,-0
 .00008760,-0.00006761,0.00008367,-0.00002933,0.00010745,0.00004480,0.0
 0010386,0.00012875,-0.00014313,-0.00068287,-0.00018060,0.00036085,-0.0
 0003453,-0.00003618,-0.00002500,0.00071543,-0.00041231,-0.00022725,0.0
 0719763,-0.00035667,-0.00790168,-0.00343704,0.00151186,-0.02354905,-0.
 00122590,-0.00230008,-0.00068194,-0.00091677,0.00155581,-0.00187142,-0
 .00003501,-0.00003365,0.00004387,0.00005676,0.00012729,0.00032742,-0.0
 0048233,-0.00041636,-0.00018550,-0.00065048,0.00011223,0.00066934,-0.0
 0020016,0.00017650,-0.00005804,0.00008124,-0.00003656,0.00001853,0.000
 11251,-0.00018774,0.00012148,0.00055145,-0.00048847,0.00067056,0.00007
 354,0.00096101,0.00053020,-0.00010850,-0.00022744,0.00018287,0.0523840
 6,-0.04619342,-0.24411275,0.00215008,-0.00500928,-0.00806717,-0.057331
 86,0.05069946,0.28369984\\-0.00000013,0.00000005,0.00000013,-0.0000001
 5,0.,0.00000028,-0.00000026,-0.00000016,-0.00000010,0.00000015,0.00000
 008,-0.00000002,-0.00000004,0.00000010,0.00000011,0.00000096,-0.000000
 07,0.00000009,-0.00000008,-0.00000012,0.00000012,-0.00000020,0.0000000
 3,0.00000016,-0.00000008,-0.00000009,0.00000027,0.00000041,0.00000063,
 0.00000007,0.00001660,0.,0.00000070,0.00000009,0.00000036,-0.00000021,
 -0.00000002,0.00000019,0.00000011,0.00000011,0.,-0.00000015,-0.0000009
 2,0.00000006,0.00000003,0.00002302,-0.00000005,0.00000092,-0.00002290,
 -0.00000013,-0.00000097,0.00000028,-0.00000023,0.00000023,-0.00000007,
 -0.00000021,0.00000019,-0.00000014,-0.00000011,0.00000029,-0.00000004,
 -0.00000028,0.00000009,-0.00000009,-0.00000028,0.00000010,-0.00000071,
 -0.00000026,-0.00000002,0.00001725,-0.00000015,0.00000038,-0.00001717,
 -0.00000018,-0.00000043,-0.00000002,-0.00000026,-0.00000011,0.00000007
 ,-0.00000002,-0.00000022,0.00000025,-0.00000001,-0.00000011,-0.0000164
 3,0.00000052,-0.00000093,-0.00000010,0.00000045,-0.00000053,-0.0000000
 8,0.,-0.00000009,0.00000055,0.00000042,0.00000025,0.00001423,0.0000007
 7,0.00000084,-0.00000090,0.00000025,-0.00000005,0.00000011,-0.00000023
 ,-0.00000005,0.00000022,-0.00000014,-0.00000033,0.00000017,0.00000005,
 -0.00000003,0.00000005,-0.00000006,-0.00000021,0.00000005,0.00000050,0
 .00000016,-0.00000008,0.00000007,0.00000021,-0.00000191,-0.00000015,-0
 .00000043,-0.00001413,-0.00000071,-0.00000051,0.00000080,-0.00000009,0
 .00000038,0.00000017,-0.00000049,-0.00000005,-0.00000006,-0.00000001,-
 0.00000005,0.00000025,-0.00000044,-0.00000020,0.00000020,-0.00000025,-
 0.00000010,0.00000080,-0.00000024,-0.00000020,-0.00002451,-0.00000013,
 -0.00000057,0.00002460,-0.00000034,0.00000050,-0.00000030,-0.00000041,
 0.00000004,-0.00000011,-0.00000005,0.00000007,-0.00000019,-0.00000035,
 0.00000004,-0.00000023,-0.00000010,-0.00000006,0.00000043,0.00000035,0
 .00000007,0.00000023,-0.00000007,0.00000094,-0.00000013,-0.00000076,-0
 .00000041,-0.00000008,0.,-0.00000029,0.00000064,-0.00000228,0.00000067
 ,-0.00000308,0.00000136,-0.00000088,0.00001309,0.00000099,0.00005212,-
 0.00001395,-0.00000124,-0.00005294,0.00000070,0.00000051,-0.00000020,0
 .00000059,-0.00000025,0.00000064,0.00000033,-0.00000026,0.00000028,0.0
 0000012,-0.00000123,0.00000053,-0.00000005,-0.00000076,0.00000009,0.00
 000095,0.00000073,0.00000054,0.00000034,0.00000170,0.00000049,0.000000
 82,0.00000059,0.00000014,-0.00000220,0.00000027,-0.00000079,0.00000047
 ,0.00000073,0.00000009,-0.00000085,0.00000063,0.00000054,0.00000210,0.
 00000193,-0.00000253,0.00000070,-0.00000012,0.00000080,-0.00000050,-0.
 00000054,0.00000005\\\@


 JUST WHEN YOU THINK YOU'VE GOT THE WORLD ON A STRING,
 YOU FIND OUT IT'S YOUR LEASH.
 Job cpu time:       0 days  0 hours  0 minutes  0.6 seconds.
 Elapsed time:       0 days  0 hours  1 minutes 36.9 seconds.
 File lengths (MBytes):  RWF=     22 Int=      0 D2E=      0 Chk=      3 Scr=      2
 Normal termination of Gaussian 16 at Tue May 27 14:17:59 2025.
