 Entering Gaussian System, Link 0=/mlatom/software/Gaussian/g16-avx2/g16
 Input=gaussian.com
 Output=gaussian.log
 Initial command:
 /mlatom/software/Gaussian/g16-avx2/l1.exe "/mlatom/home/huangyh/projects/delta_learning/paper/revision1/Starting_from_ub3lyp_d4/c60/ADL/p/Gau-135519.inp" -scrdir="/mlatom/home/huangyh/projects/delta_learning/paper/revision1/Starting_from_ub3lyp_d4/c60/ADL/p/"
 Entering Link 1 = /mlatom/software/Gaussian/g16-avx2/l1.exe PID=    135520.
  
 Copyright (c) 1988,1990,1992,1993,1995,1998,2003,2009,2016,
            Gaussian, Inc.  All Rights Reserved.
  
 This is part of the Gaussian(R) 16 program.  It is based on
 the Gaussian(R) 09 system (copyright 2009, Gaussian, Inc.),
 the Gaussian(R) 03 system (copyright 2003, Gaussian, Inc.),
 the Gaussian(R) 98 system (copyright 1998, Gaussian, Inc.),
 the Gaussian(R) 94 system (copyright 1995, Gaussian, Inc.),
 the Gaussian 92(TM) system (copyright 1992, Gaussian, Inc.),
 the Gaussian 90(TM) system (copyright 1990, Gaussian, Inc.),
 the Gaussian 88(TM) system (copyright 1988, Gaussian, Inc.),
 the Gaussian 86(TM) system (copyright 1986, Carnegie Mellon
 University), and the Gaussian 82(TM) system (copyright 1983,
 Carnegie Mellon University). Gaussian is a federally registered
 trademark of Gaussian, Inc.
  
 This software contains proprietary and confidential information,
 including trade secrets, belonging to Gaussian, Inc.
  
 This software is provided under written license and may be
 used, copied, transmitted, or stored only in accord with that
 written license.
  
 The following legend is applicable only to US Government
 contracts under FAR:
  
                    RESTRICTED RIGHTS LEGEND
  
 Use, reproduction and disclosure by the US Government is
 subject to restrictions as set forth in subparagraphs (a)
 and (c) of the Commercial Computer Software - Restricted
 Rights clause in FAR 52.227-19.
  
 Gaussian, Inc.
 340 Quinnipiac St., Bldg. 40, Wallingford CT 06492
  
  
 ---------------------------------------------------------------
 Warning -- This program may not be used in any manner that
 competes with the business of Gaussian, Inc. or will provide
 assistance to any competitor of Gaussian, Inc.  The licensee
 of this program is prohibited from giving any competitor of
 Gaussian, Inc. access to this program.  By using this program,
 the user acknowledges that Gaussian, Inc. is engaged in the
 business of creating and licensing software in the field of
 computational chemistry and represents and warrants to the
 licensee that it is not a competitor of Gaussian, Inc. and that
 it will not use this program in any manner prohibited above.
 ---------------------------------------------------------------
  

 Cite this work as:
 Gaussian 16, Revision A.03,
 M. J. Frisch, G. W. Trucks, H. B. Schlegel, G. E. Scuseria, 
 M. A. Robb, J. R. Cheeseman, G. Scalmani, V. Barone, 
 G. A. Petersson, H. Nakatsuji, X. Li, M. Caricato, A. V. Marenich, 
 J. Bloino, B. G. Janesko, R. Gomperts, B. Mennucci, H. P. Hratchian, 
 J. V. Ortiz, A. F. Izmaylov, J. L. Sonnenberg, D. Williams-Young, 
 F. Ding, F. Lipparini, F. Egidi, J. Goings, B. Peng, A. Petrone, 
 T. Henderson, D. Ranasinghe, V. G. Zakrzewski, J. Gao, N. Rega, 
 G. Zheng, W. Liang, M. Hada, M. Ehara, K. Toyota, R. Fukuda, 
 J. Hasegawa, M. Ishida, T. Nakajima, Y. Honda, O. Kitao, H. Nakai, 
 T. Vreven, K. Throssell, J. A. Montgomery, Jr., J. E. Peralta, 
 F. Ogliaro, M. J. Bearpark, J. J. Heyd, E. N. Brothers, K. N. Kudin, 
 V. N. Staroverov, T. A. Keith, R. Kobayashi, J. Normand, 
 K. Raghavachari, A. P. Rendell, J. C. Burant, S. S. Iyengar, 
 J. Tomasi, M. Cossi, J. M. Millam, M. Klene, C. Adamo, R. Cammi, 
 J. W. Ochterski, R. L. Martin, K. Morokuma, O. Farkas, 
 J. B. Foresman, and D. J. Fox, Gaussian, Inc., Wallingford CT, 2016.
 
 ******************************************
 Gaussian 16:  ES64L-G16RevA.03 25-Dec-2016
                27-May-2025 
 ******************************************
 %nproc=1
 Will use up to    1 processors via shared memory.
 ----------------------------------------------------------------------
 #p Freq external='/mlatom/software/miniconda3/bin/python /mlatom/softw
 are/mlatom_xacs/mlatom/interfaces/gaussian_interface.py model_predict_
 kwargs'
 ----------------------------------------------------------------------
 1/10=4,18=10,30=1,38=1/1,3;
 2/12=2,17=6,18=5,40=1/2;
 3/11=9,25=1,30=1,41=9900000,43=2,71=2,140=1/1;
 4/20=17,22=2,24=3,113=1,114=1/2;
 6/7=2,8=2,9=2,10=2/1;
 7/8=1,25=1,44=-1/16;
 1/10=4,18=10,30=1/3;
 99//99;
 Leave Link    1 at Tue May 27 10:48:21 2025, MaxMem=           0 cpu:               0.0 elap:               0.0
 (Enter /mlatom/software/Gaussian/g16-avx2/l101.exe)
 ------------------------------------
 1cec7620-61a1-477a-8074-f9d8979670cf
 ------------------------------------
 Symbolic Z-matrix:
 Charge =  0 Multiplicity = 1
 C                    -1.93488   2.30258  -2.3884 
 C                    -0.51378   2.30182  -2.66684 
 C                     0.09491   1.169    -3.20793 
 C                    -0.70227  -0.00186  -3.50335 
 C                    -2.07022  -0.00178  -3.24567 
 C                    -2.69815   1.1723   -2.67008 
 C                    -2.14683   3.02976  -1.15091 
 C                    -0.85428   3.47621  -0.6703 
 C                     0.1515    3.01801  -1.60962 
 C                     1.39043   2.56685  -1.14845 
 C                     1.3892    0.73453  -2.73517 
 C                     0.09499  -1.17234  -3.20668 
 C                    -0.51359  -2.30464  -2.66439 
 C                    -1.93469  -2.30523  -2.38595 
 C                    -2.69805  -1.17532  -2.66883 
 C                    -3.70481  -0.72687  -1.73011 
 C                    -3.70489   0.72476  -1.73089 
 C                    -3.90786   1.42175  -0.54205 
 C                    -3.1132    2.59739  -0.24614 
 C                    -0.58035   3.47706   0.69345 
 C                    -1.58635   3.03114   1.63683 
 C                    -2.82719   2.59808   1.17633 
 C                    -3.44542   1.42293   1.7576 
 C                    -4.11436   0.69656   0.6962 
 C                    -4.11436  -0.69616   0.69694 
 C                    -3.90775  -1.42262  -0.54054 
 C                    -3.11299  -2.59787  -0.24339 
 C                    -2.14657  -3.03112  -1.1477 
 C                     1.38922  -0.73727  -2.73437 
 C                     0.71048  -3.01871   1.17474 
 C                     1.67379  -2.56728   0.27034 
 C                     2.48734  -1.42447   0.56379 
 C                     2.29026  -0.7354    1.73603 
 C                     1.27798  -1.16947   2.67265 
 C                    -0.91186  -2.30226   2.6992 
 C                    -1.58609  -3.02949   1.64002 
 C                    -0.58004  -3.47632   0.69712 
 C                    -0.85398  -3.47695  -0.66662 
 C                     0.15176  -3.01966  -1.60641 
 C                     1.39067  -2.56792  -1.14573 
 C                     2.48699   1.42522   0.5623 
 C                     2.29014   0.73742   1.73528 
 C                     1.27786   1.17242   2.67144 
 C                     0.6565    0.00175   3.25333 
 C                    -0.70517   0.00185   3.54277 
 C                    -1.50686  -1.17207   3.25417 
 C                    -2.82698  -2.59705   1.17908 
 C                    -3.44533  -1.42134   1.75911 
 C                    -2.79832  -0.72442   2.77697 
 C                    -2.79833   0.72714   2.77618 
 C                    -1.50694   1.1754    3.25293 
 C                    -0.91206   2.30507   2.69678 
 C                     0.50636   2.3043    2.40439 
 C                     0.71019   3.02004   1.17156 
 C                     1.67348   2.5677    0.26763 
 C                     2.02887  -1.42622  -1.73323 
 C                     2.02876   1.42459  -1.73474 
 C                     0.50657  -2.30169   2.4068 
 C                     3.00625  -0.79643  -0.73746 
 C                     3.00606   0.7959   -0.7382 
 C                     5.45579   0.67104  -0.07189 
 C                     5.45634  -0.67083  -0.07205 
 C                     6.32672   1.56873   0.76989 
 H                     6.88819   2.27502   0.14129 
 H                     5.72679   2.16881   1.46849 
 H                     7.0589    1.00803   1.35467 
 C                     6.3279   -1.56806   0.7696 
 H                     6.88948  -2.27415   0.14089 
 H                     7.06     -1.00697   1.3541 
 H                     5.72846  -2.16837   1.46844 
 C                     4.45682  -1.31521  -1.00593 
 H                     4.71881  -1.08839  -2.04852 
 H                     4.44797  -2.40356  -0.92987 
 C                     4.45653   1.31483  -1.00643 
 H                     4.44739   2.4032   -0.93085 
 H                     4.71906   1.08756  -2.04877 
 
 ITRead=  0  0  0  0  0  0  0  0  0  0  0  0  0  0  0  0  0  0  0  0
 ITRead=  0  0  0  0  0  0  0  0  0  0  0  0  0  0  0  0  0  0  0  0
 ITRead=  0  0  0  0  0  0  0  0  0  0  0  0  0  0  0  0  0  0  0  0
 ITRead=  0  0  0  0  0  0  0  0  0  0  0  0  0  0  0  0
 MicOpt= -1 -1 -1 -1 -1 -1 -1 -1 -1 -1 -1 -1 -1 -1 -1 -1 -1 -1 -1 -1
 MicOpt= -1 -1 -1 -1 -1 -1 -1 -1 -1 -1 -1 -1 -1 -1 -1 -1 -1 -1 -1 -1
 MicOpt= -1 -1 -1 -1 -1 -1 -1 -1 -1 -1 -1 -1 -1 -1 -1 -1 -1 -1 -1 -1
 MicOpt= -1 -1 -1 -1 -1 -1 -1 -1 -1 -1 -1 -1 -1 -1 -1 -1
 NAtoms=     76 NQM=       76 NQMF=       0 NMMI=      0 NMMIF=      0
                NMic=       0 NMicF=      0.
                    Isotopes and Nuclear Properties:
 (Nuclear quadrupole moments (NQMom) in fm**2, nuclear magnetic moments (NMagM)
  in nuclear magnetons)

  Atom         1           2           3           4           5           6           7           8           9          10
 IAtWgt=          12          12          12          12          12          12          12          12          12          12
 AtmWgt=  12.0000000  12.0000000  12.0000000  12.0000000  12.0000000  12.0000000  12.0000000  12.0000000  12.0000000  12.0000000
 NucSpn=           0           0           0           0           0           0           0           0           0           0
 AtZEff=  -0.0000000  -0.0000000  -0.0000000  -0.0000000  -0.0000000  -0.0000000  -0.0000000  -0.0000000  -0.0000000  -0.0000000
 NQMom=    0.0000000   0.0000000   0.0000000   0.0000000   0.0000000   0.0000000   0.0000000   0.0000000   0.0000000   0.0000000
 NMagM=    0.0000000   0.0000000   0.0000000   0.0000000   0.0000000   0.0000000   0.0000000   0.0000000   0.0000000   0.0000000
 AtZNuc=   6.0000000   6.0000000   6.0000000   6.0000000   6.0000000   6.0000000   6.0000000   6.0000000   6.0000000   6.0000000

  Atom        11          12          13          14          15          16          17          18          19          20
 IAtWgt=          12          12          12          12          12          12          12          12          12          12
 AtmWgt=  12.0000000  12.0000000  12.0000000  12.0000000  12.0000000  12.0000000  12.0000000  12.0000000  12.0000000  12.0000000
 NucSpn=           0           0           0           0           0           0           0           0           0           0
 AtZEff=  -0.0000000  -0.0000000  -0.0000000  -0.0000000  -0.0000000  -0.0000000  -0.0000000  -0.0000000  -0.0000000  -0.0000000
 NQMom=    0.0000000   0.0000000   0.0000000   0.0000000   0.0000000   0.0000000   0.0000000   0.0000000   0.0000000   0.0000000
 NMagM=    0.0000000   0.0000000   0.0000000   0.0000000   0.0000000   0.0000000   0.0000000   0.0000000   0.0000000   0.0000000
 AtZNuc=   6.0000000   6.0000000   6.0000000   6.0000000   6.0000000   6.0000000   6.0000000   6.0000000   6.0000000   6.0000000

  Atom        21          22          23          24          25          26          27          28          29          30
 IAtWgt=          12          12          12          12          12          12          12          12          12          12
 AtmWgt=  12.0000000  12.0000000  12.0000000  12.0000000  12.0000000  12.0000000  12.0000000  12.0000000  12.0000000  12.0000000
 NucSpn=           0           0           0           0           0           0           0           0           0           0
 AtZEff=  -0.0000000  -0.0000000  -0.0000000  -0.0000000  -0.0000000  -0.0000000  -0.0000000  -0.0000000  -0.0000000  -0.0000000
 NQMom=    0.0000000   0.0000000   0.0000000   0.0000000   0.0000000   0.0000000   0.0000000   0.0000000   0.0000000   0.0000000
 NMagM=    0.0000000   0.0000000   0.0000000   0.0000000   0.0000000   0.0000000   0.0000000   0.0000000   0.0000000   0.0000000
 AtZNuc=   6.0000000   6.0000000   6.0000000   6.0000000   6.0000000   6.0000000   6.0000000   6.0000000   6.0000000   6.0000000

  Atom        31          32          33          34          35          36          37          38          39          40
 IAtWgt=          12          12          12          12          12          12          12          12          12          12
 AtmWgt=  12.0000000  12.0000000  12.0000000  12.0000000  12.0000000  12.0000000  12.0000000  12.0000000  12.0000000  12.0000000
 NucSpn=           0           0           0           0           0           0           0           0           0           0
 AtZEff=  -0.0000000  -0.0000000  -0.0000000  -0.0000000  -0.0000000  -0.0000000  -0.0000000  -0.0000000  -0.0000000  -0.0000000
 NQMom=    0.0000000   0.0000000   0.0000000   0.0000000   0.0000000   0.0000000   0.0000000   0.0000000   0.0000000   0.0000000
 NMagM=    0.0000000   0.0000000   0.0000000   0.0000000   0.0000000   0.0000000   0.0000000   0.0000000   0.0000000   0.0000000
 AtZNuc=   6.0000000   6.0000000   6.0000000   6.0000000   6.0000000   6.0000000   6.0000000   6.0000000   6.0000000   6.0000000

  Atom        41          42          43          44          45          46          47          48          49          50
 IAtWgt=          12          12          12          12          12          12          12          12          12          12
 AtmWgt=  12.0000000  12.0000000  12.0000000  12.0000000  12.0000000  12.0000000  12.0000000  12.0000000  12.0000000  12.0000000
 NucSpn=           0           0           0           0           0           0           0           0           0           0
 AtZEff=  -0.0000000  -0.0000000  -0.0000000  -0.0000000  -0.0000000  -0.0000000  -0.0000000  -0.0000000  -0.0000000  -0.0000000
 NQMom=    0.0000000   0.0000000   0.0000000   0.0000000   0.0000000   0.0000000   0.0000000   0.0000000   0.0000000   0.0000000
 NMagM=    0.0000000   0.0000000   0.0000000   0.0000000   0.0000000   0.0000000   0.0000000   0.0000000   0.0000000   0.0000000
 AtZNuc=   6.0000000   6.0000000   6.0000000   6.0000000   6.0000000   6.0000000   6.0000000   6.0000000   6.0000000   6.0000000

  Atom        51          52          53          54          55          56          57          58          59          60
 IAtWgt=          12          12          12          12          12          12          12          12          12          12
 AtmWgt=  12.0000000  12.0000000  12.0000000  12.0000000  12.0000000  12.0000000  12.0000000  12.0000000  12.0000000  12.0000000
 NucSpn=           0           0           0           0           0           0           0           0           0           0
 AtZEff=  -0.0000000  -0.0000000  -0.0000000  -0.0000000  -0.0000000  -0.0000000  -0.0000000  -0.0000000  -0.0000000  -0.0000000
 NQMom=    0.0000000   0.0000000   0.0000000   0.0000000   0.0000000   0.0000000   0.0000000   0.0000000   0.0000000   0.0000000
 NMagM=    0.0000000   0.0000000   0.0000000   0.0000000   0.0000000   0.0000000   0.0000000   0.0000000   0.0000000   0.0000000
 AtZNuc=   6.0000000   6.0000000   6.0000000   6.0000000   6.0000000   6.0000000   6.0000000   6.0000000   6.0000000   6.0000000

  Atom        61          62          63          64          65          66          67          68          69          70
 IAtWgt=          12          12          12           1           1           1          12           1           1           1
 AtmWgt=  12.0000000  12.0000000  12.0000000   1.0078250   1.0078250   1.0078250  12.0000000   1.0078250   1.0078250   1.0078250
 NucSpn=           0           0           0           1           1           1           0           1           1           1
 AtZEff=  -0.0000000  -0.0000000  -0.0000000  -0.0000000  -0.0000000  -0.0000000  -0.0000000  -0.0000000  -0.0000000  -0.0000000
 NQMom=    0.0000000   0.0000000   0.0000000   0.0000000   0.0000000   0.0000000   0.0000000   0.0000000   0.0000000   0.0000000
 NMagM=    0.0000000   0.0000000   0.0000000   2.7928460   2.7928460   2.7928460   0.0000000   2.7928460   2.7928460   2.7928460
 AtZNuc=   6.0000000   6.0000000   6.0000000   1.0000000   1.0000000   1.0000000   6.0000000   1.0000000   1.0000000   1.0000000

  Atom        71          72          73          74          75          76
 IAtWgt=          12           1           1          12           1           1
 AtmWgt=  12.0000000   1.0078250   1.0078250  12.0000000   1.0078250   1.0078250
 NucSpn=           0           1           1           0           1           1
 AtZEff=  -0.0000000  -0.0000000  -0.0000000  -0.0000000  -0.0000000  -0.0000000
 NQMom=    0.0000000   0.0000000   0.0000000   0.0000000   0.0000000   0.0000000
 NMagM=    0.0000000   2.7928460   2.7928460   0.0000000   2.7928460   2.7928460
 AtZNuc=   6.0000000   1.0000000   1.0000000   6.0000000   1.0000000   1.0000000
 Leave Link  101 at Tue May 27 10:48:22 2025, MaxMem=   104857600 cpu:               0.1 elap:               0.2
 (Enter /mlatom/software/Gaussian/g16-avx2/l103.exe)

 GradGradGradGradGradGradGradGradGradGradGradGradGradGradGradGradGradGrad
 Berny optimization.
 Initialization pass.
 Trust Radius=3.00D-01 FncErr=1.00D-07 GrdErr=1.00D-07 EigMax=2.50D+02 EigMin=1.00D-04
 Number of steps in this run=      2 maximum allowed number of steps=      2.
 GradGradGradGradGradGradGradGradGradGradGradGradGradGradGradGradGradGrad

 Leave Link  103 at Tue May 27 10:48:22 2025, MaxMem=   104857600 cpu:               0.0 elap:               0.1
 (Enter /mlatom/software/Gaussian/g16-avx2/l202.exe)
 Stoichiometry    C66H10
 Framework group  C1[X(C66H10)]
 Deg. of freedom   222
 Full point group                 C1      NOp   1
 Largest Abelian subgroup         C1      NOp   1
 Largest concise Abelian subgroup C1      NOp   1
                         Standard orientation:                         
 ---------------------------------------------------------------------
 Center     Atomic      Atomic             Coordinates (Angstroms)
 Number     Number       Type             X           Y           Z
 ---------------------------------------------------------------------
      1          6           0       -1.934881    2.302582   -2.388395
      2          6           0       -0.513778    2.301820   -2.666836
      3          6           0        0.094910    1.168997   -3.207927
      4          6           0       -0.702273   -0.001860   -3.503350
      5          6           0       -2.070223   -0.001785   -3.245665
      6          6           0       -2.698154    1.172303   -2.670084
      7          6           0       -2.146827    3.029759   -1.150910
      8          6           0       -0.854283    3.476209   -0.670301
      9          6           0        0.151495    3.018015   -1.609616
     10          6           0        1.390428    2.566850   -1.148447
     11          6           0        1.389197    0.734533   -2.735166
     12          6           0        0.094993   -1.172338   -3.206676
     13          6           0       -0.513586   -2.304644   -2.664386
     14          6           0       -1.934688   -2.305235   -2.385948
     15          6           0       -2.698051   -1.175317   -2.668834
     16          6           0       -3.704811   -0.726868   -1.730110
     17          6           0       -3.704886    0.724760   -1.730890
     18          6           0       -3.907857    1.421750   -0.542048
     19          6           0       -3.113201    2.597386   -0.246142
     20          6           0       -0.580354    3.477063    0.693450
     21          6           0       -1.586354    3.031136    1.636826
     22          6           0       -2.827191    2.598084    1.176331
     23          6           0       -3.445420    1.422929    1.757596
     24          6           0       -4.114357    0.696563    0.696197
     25          6           0       -4.114358   -0.696155    0.696944
     26          6           0       -3.907754   -1.422625   -0.540539
     27          6           0       -3.112988   -2.597874   -0.243389
     28          6           0       -2.146572   -3.031118   -1.147697
     29          6           0        1.389223   -0.737269   -2.734371
     30          6           0        0.710476   -3.018708    1.174739
     31          6           0        1.673789   -2.567285    0.270340
     32          6           0        2.487337   -1.424467    0.563788
     33          6           0        2.290258   -0.735401    1.736028
     34          6           0        1.277978   -1.169475    2.672647
     35          6           0       -0.911863   -2.302256    2.699204
     36          6           0       -1.586092   -3.029493    1.640021
     37          6           0       -0.580043   -3.476324    0.697118
     38          6           0       -0.853984   -3.476947   -0.666623
     39          6           0        0.151758   -3.019660   -1.606414
     40          6           0        1.390670   -2.567921   -1.145732
     41          6           0        2.486995    1.425218    0.562301
     42          6           0        2.290138    0.737422    1.735278
     43          6           0        1.277855    1.172421    2.671444
     44          6           0        0.656504    0.001749    3.253327
     45          6           0       -0.705166    0.001848    3.542765
     46          6           0       -1.506860   -1.172066    3.254166
     47          6           0       -2.826981   -2.597046    1.179084
     48          6           0       -3.445334   -1.421338    1.759108
     49          6           0       -2.798318   -0.724421    2.776974
     50          6           0       -2.798328    0.727139    2.776184
     51          6           0       -1.506942    1.175398    3.252930
     52          6           0       -0.912062    2.305067    2.696781
     53          6           0        0.506360    2.304304    2.404386
     54          6           0        0.710186    3.020041    1.171564
     55          6           0        1.673477    2.567700    0.267631
     56          6           0        2.028868   -1.426215   -1.733232
     57          6           0        2.028762    1.424591   -1.734736
     58          6           0        0.506571   -2.301690    2.406800
     59          6           0        3.006251   -0.796431   -0.737463
     60          6           0        3.006055    0.795902   -0.738196
     61          6           0        5.455790    0.671038   -0.071886
     62          6           0        5.456340   -0.670833   -0.072047
     63          6           0        6.326723    1.568730    0.769891
     64          1           0        6.888193    2.275019    0.141293
     65          1           0        5.726786    2.168813    1.468490
     66          1           0        7.058905    1.008029    1.354667
     67          6           0        6.327895   -1.568055    0.769603
     68          1           0        6.889483   -2.274147    0.140891
     69          1           0        7.060001   -1.006967    1.354103
     70          1           0        5.728460   -2.168374    1.468441
     71          6           0        4.456819   -1.315212   -1.005935
     72          1           0        4.718811   -1.088393   -2.048516
     73          1           0        4.447968   -2.403563   -0.929873
     74          6           0        4.456534    1.314828   -1.006433
     75          1           0        4.447388    2.403200   -0.930851
     76          1           0        4.719062    1.087559   -2.048775
 ---------------------------------------------------------------------
 Rotational constants (GHZ):           0.0814010           0.0563954           0.0557010
 Leave Link  202 at Tue May 27 10:48:23 2025, MaxMem=   104857600 cpu:               0.0 elap:               0.1
 (Enter /mlatom/software/Gaussian/g16-avx2/l301.exe)
 Standard basis: STO-3G (5D, 7F)
 Ernie: Thresh=  0.10000D-02 Tol=  0.10000D-05 Strict=F.
 There are   340 symmetry adapted cartesian basis functions of A   symmetry.
 There are   340 symmetry adapted basis functions of A   symmetry.
   340 basis functions,  1020 primitive gaussians,   340 cartesian basis functions
   203 alpha electrons      203 beta electrons
       nuclear repulsion energy      9948.8403179807 Hartrees.
 IExCor=    0 DFT=F Ex=HF Corr=None ExCW=0 ScaHFX=  1.000000
 ScaDFX=  1.000000  1.000000  1.000000  1.000000 ScalE2=  1.000000  1.000000
 IRadAn=      5 IRanWt=     -1 IRanGd=            0 ICorTp=0 IEmpDi=  4
 NAtoms=   76 NActive=   76 NUniq=   76 SFac= 1.00D+00 NAtFMM=   60 NAOKFM=T Big=T
 Integral buffers will be    131072 words long.
 Raffenetti 1 integral format.
 Two-electron integral symmetry is turned on.
 Leave Link  301 at Tue May 27 10:48:23 2025, MaxMem=   104857600 cpu:               0.0 elap:               0.1
 (Enter /mlatom/software/Gaussian/g16-avx2/l402.exe)
 External calculation of energy, first and second derivatives.
 Running external command "/mlatom/software/miniconda3/bin/python /mlatom/software/mlatom_xacs/mlatom/interfaces/gaussian_interface.py model_predict_kwargs R"
         input file       "/mlatom/home/huangyh/projects/delta_learning/paper/revision1/Starting_from_ub3lyp_d4/c60/ADL/p/Gau-135520.EIn"
         output file      "/mlatom/home/huangyh/projects/delta_learning/paper/revision1/Starting_from_ub3lyp_d4/c60/ADL/p/Gau-135520.EOu"
         message file     "/mlatom/home/huangyh/projects/delta_learning/paper/revision1/Starting_from_ub3lyp_d4/c60/ADL/p/Gau-135520.EMs"
         fchk file        "/mlatom/home/huangyh/projects/delta_learning/paper/revision1/Starting_from_ub3lyp_d4/c60/ADL/p/Gau-135520.EFC"
         mat. el file     "/mlatom/home/huangyh/projects/delta_learning/paper/revision1/Starting_from_ub3lyp_d4/c60/ADL/p/Gau-135520.EUF"
model loaded from /mlatom/home/huangyh/projects/delta_learning/paper/revision1/Starting_from_ub3lyp_d4/c60/ADL/ADL_main_model_C60_butadiene.npz
 Recovered energy= -2521.21828229     dipole=      3.484506526780      0.000000000000     -0.399028099711
 Energy=    -2521.21828     NIter=   0.
 Dipole moment=       3.484507       0.000000      -0.399028
 Leave Link  402 at Tue May 27 10:50:04 2025, MaxMem=   104857600 cpu:               0.1 elap:             101.4
 (Enter /mlatom/software/Gaussian/g16-avx2/l601.exe)
 Leave Link  601 at Tue May 27 10:50:05 2025, MaxMem=   104857600 cpu:               0.0 elap:               0.1
 (Enter /mlatom/software/Gaussian/g16-avx2/l716.exe)
 Dipole        = 3.48450653D+00 0.00000000D+00-3.99028100D-01
 Full mass-weighted force constant matrix:
 Low frequencies ---  -39.0967  -33.3934  -33.1134    0.1397    0.2482    0.6403
 Low frequencies ---   68.5179   75.5160  108.9237
 Diagonal vibrational polarizability:
        0.0000000       0.0000000       0.0000000
 Harmonic frequencies (cm**-1), IR intensities (KM/Mole), Raman scattering
 activities (A**4/AMU), depolarization ratios for plane and unpolarized
 incident light, reduced masses (AMU), force constants (mDyne/A),
 and normal coordinates:
                      1                      2                      3
                      A                      A                      A
 Frequencies --     68.3564                75.1562               108.9055
 Red. masses --      3.8298                 3.3103                 3.7739
 Frc consts  --      0.0105                 0.0110                 0.0264
 IR Inten    --      0.0000                 0.0000                 0.0000
  Atom  AN      X      Y      Z        X      Y      Z        X      Y      Z
     1   6    -0.02  -0.00   0.00     0.01   0.01   0.01    -0.03  -0.00   0.00
     2   6    -0.02   0.00  -0.02     0.01   0.00   0.01    -0.02   0.01   0.01
     3   6    -0.02  -0.00  -0.02     0.00  -0.00   0.00    -0.01   0.02   0.01
     4   6    -0.03  -0.00  -0.01    -0.00   0.00  -0.00     0.00   0.02  -0.00
     5   6    -0.02  -0.00   0.00    -0.00   0.01  -0.00     0.00  -0.00  -0.00
     6   6    -0.02  -0.00   0.01     0.01   0.01   0.00    -0.01  -0.01   0.00
     7   6    -0.00  -0.00   0.00     0.02   0.01   0.01    -0.03  -0.01   0.00
     8   6     0.00   0.00  -0.01     0.02  -0.00   0.01    -0.04   0.01   0.00
     9   6    -0.01   0.00  -0.02     0.02  -0.01   0.01    -0.03   0.02   0.00
    10   6    -0.00   0.00  -0.04     0.01  -0.02   0.01    -0.02   0.04  -0.00
    11   6    -0.02   0.00  -0.04     0.00  -0.01   0.00    -0.00   0.04   0.00
    12   6    -0.02   0.00  -0.02    -0.00  -0.00  -0.00     0.01   0.02  -0.01
    13   6    -0.02  -0.00  -0.02    -0.01   0.00  -0.01     0.02   0.01  -0.01
    14   6    -0.02   0.00   0.00    -0.01   0.01  -0.01     0.03  -0.00  -0.00
    15   6    -0.02   0.00   0.01    -0.01   0.01  -0.00     0.01  -0.01  -0.00
    16   6    -0.01   0.00   0.02    -0.00   0.02  -0.00     0.01  -0.02  -0.00
    17   6    -0.01  -0.00   0.02     0.00   0.02   0.00    -0.01  -0.02   0.00
    18   6     0.01  -0.00   0.02     0.01   0.01   0.01    -0.02  -0.03   0.00
    19   6     0.01  -0.00   0.01     0.02   0.01   0.01    -0.03  -0.02   0.00
    20   6     0.02   0.00  -0.01     0.02  -0.01   0.01    -0.04   0.01   0.00
    21   6     0.03   0.00  -0.00     0.02  -0.01   0.01    -0.03  -0.00   0.00
    22   6     0.02   0.00   0.01     0.02   0.00   0.01    -0.03  -0.02   0.00
    23   6     0.03   0.00   0.02     0.01   0.00   0.00    -0.02  -0.02   0.00
    24   6     0.02  -0.00   0.03     0.00   0.01   0.00    -0.01  -0.03   0.00
    25   6     0.02   0.00   0.03    -0.00   0.01  -0.00     0.01  -0.03  -0.00
    26   6     0.01   0.00   0.02    -0.01   0.01  -0.01     0.02  -0.03  -0.00
    27   6     0.01   0.00   0.01    -0.02   0.01  -0.01     0.03  -0.02  -0.00
    28   6    -0.00   0.00   0.00    -0.02   0.01  -0.01     0.03  -0.01  -0.00
    29   6    -0.02  -0.00  -0.04    -0.00  -0.01  -0.00     0.00   0.04  -0.00
    30   6     0.02  -0.00  -0.03    -0.02  -0.02  -0.01     0.03   0.02   0.00
    31   6     0.01   0.00  -0.04    -0.02  -0.02  -0.01     0.01   0.04  -0.00
    32   6    -0.00   0.00  -0.05    -0.02  -0.02  -0.00    -0.01   0.05  -0.00
    33   6     0.02   0.00  -0.04    -0.01  -0.03   0.00     0.00   0.05   0.00
    34   6     0.04  -0.00  -0.03    -0.01  -0.03  -0.00     0.01   0.03   0.00
    35   6     0.04  -0.00  -0.01    -0.01  -0.02  -0.01     0.03   0.01   0.00
    36   6     0.03  -0.00  -0.00    -0.02  -0.01  -0.01     0.03  -0.00  -0.00
    37   6     0.02  -0.00  -0.01    -0.02  -0.01  -0.01     0.04   0.01  -0.00
    38   6     0.00  -0.00  -0.01    -0.02  -0.00  -0.01     0.04   0.01  -0.00
    39   6    -0.01  -0.00  -0.02    -0.02  -0.01  -0.01     0.03   0.02  -0.00
    40   6    -0.00  -0.00  -0.04    -0.01  -0.02  -0.01     0.02   0.04   0.00
    41   6    -0.00  -0.00  -0.05     0.02  -0.02   0.00     0.01   0.05   0.00
    42   6     0.02  -0.00  -0.04     0.01  -0.03  -0.00    -0.00   0.05  -0.00
    43   6     0.04   0.00  -0.03     0.01  -0.03   0.00    -0.01   0.03  -0.00
    44   6     0.05   0.00  -0.02     0.00  -0.03  -0.00    -0.00   0.03  -0.00
    45   6     0.05   0.00  -0.01     0.00  -0.02   0.00    -0.00   0.01  -0.00
    46   6     0.05  -0.00  -0.00    -0.01  -0.02  -0.00     0.01   0.00  -0.00
    47   6     0.02  -0.00   0.01    -0.02   0.00  -0.01     0.03  -0.02  -0.00
    48   6     0.03  -0.00   0.02    -0.01   0.00  -0.00     0.02  -0.02  -0.00
    49   6     0.04   0.00   0.01    -0.00  -0.01  -0.00     0.01  -0.01  -0.00
    50   6     0.04  -0.00   0.01     0.00  -0.01   0.00    -0.01  -0.01   0.00
    51   6     0.05   0.00  -0.00     0.01  -0.02   0.00    -0.01   0.00   0.00
    52   6     0.04   0.00  -0.01     0.01  -0.02   0.01    -0.03   0.01  -0.00
    53   6     0.04   0.00  -0.02     0.01  -0.02   0.01    -0.03   0.02  -0.00
    54   6     0.02   0.00  -0.03     0.02  -0.02   0.01    -0.03   0.02  -0.00
    55   6     0.01  -0.00  -0.04     0.02  -0.02   0.01    -0.01   0.04   0.00
    56   6    -0.00  -0.00  -0.05     0.01  -0.02  -0.01    -0.01   0.05   0.00
    57   6    -0.00   0.00  -0.05    -0.01  -0.02   0.01     0.01   0.05  -0.00
    58   6     0.04  -0.00  -0.02    -0.01  -0.02  -0.01     0.03   0.02   0.00
    59   6    -0.00   0.00  -0.05    -0.00  -0.02   0.01    -0.02   0.05   0.00
    60   6    -0.00  -0.00  -0.05     0.00  -0.02  -0.01     0.02   0.05  -0.00
    61   6    -0.07   0.00   0.09     0.01   0.06  -0.07     0.04  -0.10  -0.02
    62   6    -0.07  -0.00   0.09    -0.01   0.06   0.07    -0.04  -0.10   0.02
    63   6    -0.18  -0.00   0.21     0.07   0.15  -0.22     0.19  -0.15  -0.11
    64   1    -0.10   0.00   0.30     0.06   0.05  -0.34     0.24  -0.26  -0.19
    65   1    -0.28  -0.01   0.13     0.12   0.26  -0.27     0.30  -0.04  -0.11
    66   1    -0.27  -0.01   0.31     0.08   0.20  -0.18     0.15  -0.21  -0.12
    67   6    -0.18   0.00   0.21    -0.07   0.15   0.22    -0.19  -0.15   0.11
    68   1    -0.09  -0.00   0.30    -0.06   0.05   0.34    -0.24  -0.26   0.19
    69   1    -0.27   0.01   0.31    -0.08   0.20   0.18    -0.15  -0.21   0.12
    70   1    -0.28   0.01   0.13    -0.12   0.26   0.27    -0.30  -0.04   0.11
    71   6     0.01   0.01  -0.00     0.02  -0.02   0.09    -0.06  -0.03  -0.00
    72   1     0.06   0.06   0.02     0.05  -0.09   0.08    -0.03  -0.04   0.00
    73   1     0.01   0.01  -0.04     0.03  -0.01   0.17    -0.13  -0.03  -0.00
    74   6     0.01  -0.01  -0.00    -0.02  -0.02  -0.09     0.06  -0.03   0.00
    75   1     0.01  -0.01  -0.04    -0.03  -0.01  -0.17     0.13  -0.03   0.00
    76   1     0.06  -0.06   0.02    -0.05  -0.09  -0.08     0.03  -0.04  -0.00
                      4                      5                      6
                      A                      A                      A
 Frequencies --    181.9375               198.2944               198.4057
 Red. masses --      3.4338                 1.1234                 2.9414
 Frc consts  --      0.0670                 0.0260                 0.0682
 IR Inten    --      0.0000                 0.0000                 0.0000
  Atom  AN      X      Y      Z        X      Y      Z        X      Y      Z
     1   6    -0.04  -0.01  -0.00    -0.01  -0.00   0.00     0.02  -0.01  -0.01
     2   6    -0.04  -0.01  -0.01    -0.01  -0.00   0.00     0.02  -0.02  -0.01
     3   6    -0.03  -0.01  -0.01    -0.00  -0.00   0.01     0.01  -0.03  -0.00
     4   6    -0.04  -0.00   0.00    -0.01  -0.00   0.01     0.00  -0.02  -0.00
     5   6    -0.04  -0.00   0.01    -0.01  -0.00   0.01     0.00  -0.02  -0.00
     6   6    -0.05  -0.00   0.01    -0.01  -0.00   0.00     0.01  -0.01  -0.00
     7   6    -0.03  -0.01  -0.00    -0.01  -0.00   0.00     0.02  -0.01  -0.01
     8   6    -0.02  -0.01  -0.02    -0.00  -0.00  -0.00     0.02  -0.01  -0.01
     9   6    -0.02  -0.01  -0.02    -0.00  -0.00   0.00     0.02  -0.02  -0.01
    10   6    -0.01  -0.01  -0.04     0.00  -0.00  -0.00     0.01  -0.02  -0.01
    11   6    -0.01  -0.00  -0.03     0.00  -0.00   0.00     0.01  -0.03  -0.00
    12   6    -0.03   0.01  -0.01    -0.00   0.00   0.01    -0.01  -0.03   0.00
    13   6    -0.04   0.01  -0.01    -0.01   0.00   0.00    -0.02  -0.02   0.01
    14   6    -0.04   0.01  -0.00    -0.01   0.00   0.00    -0.02  -0.01   0.01
    15   6    -0.05   0.00   0.01    -0.01   0.00   0.00    -0.01  -0.01   0.00
    16   6    -0.04  -0.00   0.02    -0.01  -0.00   0.00    -0.01   0.00   0.00
    17   6    -0.04   0.00   0.02    -0.01   0.00   0.00     0.01   0.00  -0.00
    18   6    -0.03   0.00   0.02    -0.01   0.00   0.00     0.01   0.01  -0.01
    19   6    -0.02  -0.00   0.01    -0.01  -0.00   0.00     0.02   0.00  -0.01
    20   6    -0.01  -0.01  -0.02    -0.00  -0.00  -0.00     0.02  -0.01  -0.01
    21   6     0.00  -0.00  -0.01    -0.00  -0.00  -0.00     0.02  -0.00  -0.01
    22   6    -0.01  -0.00   0.01    -0.01  -0.00   0.00     0.02   0.00  -0.01
    23   6    -0.00   0.00   0.02    -0.01   0.00   0.00     0.01   0.01  -0.01
    24   6    -0.02   0.00   0.02    -0.01   0.00   0.00     0.01   0.01  -0.00
    25   6    -0.02  -0.00   0.02    -0.01  -0.00   0.00    -0.01   0.01   0.00
    26   6    -0.03  -0.00   0.02    -0.01  -0.00   0.00    -0.01   0.01   0.01
    27   6    -0.02   0.00   0.01    -0.01   0.00   0.00    -0.02   0.00   0.01
    28   6    -0.03   0.01  -0.00    -0.01   0.00   0.00    -0.02  -0.01   0.01
    29   6    -0.01   0.00  -0.03    -0.00  -0.00   0.00    -0.01  -0.03   0.00
    30   6    -0.00   0.01  -0.04    -0.00   0.00  -0.01    -0.01  -0.01   0.00
    31   6    -0.01   0.01  -0.04     0.00  -0.00  -0.00    -0.00  -0.02   0.00
    32   6    -0.01   0.01  -0.04     0.01  -0.00  -0.00     0.02  -0.03  -0.01
    33   6     0.00   0.00  -0.04     0.00  -0.00  -0.01     0.00  -0.03  -0.00
    34   6     0.01   0.00  -0.03    -0.00   0.00  -0.01    -0.00  -0.02  -0.00
    35   6     0.01   0.00  -0.02    -0.00   0.00  -0.00    -0.02  -0.01   0.01
    36   6     0.00   0.00  -0.01    -0.01   0.00  -0.00    -0.02  -0.00   0.01
    37   6    -0.01   0.01  -0.02    -0.00   0.00  -0.00    -0.02  -0.01   0.01
    38   6    -0.02   0.01  -0.02    -0.01   0.00  -0.00    -0.02  -0.01   0.01
    39   6    -0.02   0.01  -0.02    -0.00   0.00   0.00    -0.02  -0.02   0.01
    40   6    -0.01   0.01  -0.04     0.00  -0.00  -0.00    -0.01  -0.02   0.01
    41   6    -0.01  -0.01  -0.04     0.01   0.00  -0.00    -0.02  -0.03   0.01
    42   6     0.00  -0.00  -0.04     0.00  -0.00  -0.01    -0.00  -0.03   0.01
    43   6     0.01  -0.00  -0.03    -0.00  -0.00  -0.01     0.00  -0.02   0.00
    44   6     0.01  -0.00  -0.03    -0.00  -0.00  -0.01     0.00  -0.02   0.00
    45   6     0.02  -0.00  -0.02    -0.00  -0.00  -0.01     0.00  -0.01   0.00
    46   6     0.02   0.00  -0.01    -0.00   0.00  -0.00    -0.01  -0.00   0.00
    47   6    -0.01   0.00   0.01    -0.01   0.00   0.00    -0.02   0.00   0.01
    48   6    -0.00  -0.00   0.02    -0.01  -0.00   0.00    -0.01   0.01   0.01
    49   6     0.01  -0.00   0.01    -0.01   0.00   0.00    -0.01   0.01   0.00
    50   6     0.01   0.00   0.01    -0.01   0.00   0.00     0.01   0.01  -0.00
    51   6     0.02  -0.00  -0.01    -0.00  -0.00  -0.00     0.01  -0.00  -0.00
    52   6     0.01  -0.00  -0.02    -0.00  -0.00  -0.00     0.02  -0.01  -0.01
    53   6     0.01  -0.00  -0.03    -0.00  -0.00  -0.01     0.01  -0.02  -0.00
    54   6    -0.00  -0.01  -0.04    -0.00  -0.00  -0.01     0.01  -0.01  -0.00
    55   6    -0.01  -0.01  -0.04     0.00   0.00  -0.00     0.00  -0.02  -0.00
    56   6     0.02  -0.01  -0.05     0.01  -0.00  -0.00    -0.01  -0.02   0.00
    57   6     0.02   0.01  -0.05     0.01   0.00  -0.00     0.01  -0.02  -0.00
    58   6     0.01   0.00  -0.03    -0.00   0.00  -0.01    -0.01  -0.02   0.00
    59   6     0.03  -0.00  -0.03     0.01  -0.00  -0.00     0.00   0.00  -0.02
    60   6     0.03   0.00  -0.03     0.01   0.00  -0.00    -0.01   0.00   0.02
    61   6     0.05  -0.00   0.14     0.02   0.00   0.02     0.01   0.09   0.05
    62   6     0.05   0.00   0.14     0.02   0.00   0.01    -0.01   0.09  -0.05
    63   6     0.15  -0.01   0.05     0.05  -0.01   0.01     0.14   0.01   0.01
    64   1    -0.02   0.07  -0.02     0.36  -0.29  -0.03     0.07   0.04  -0.02
    65   1     0.25  -0.09   0.21     0.04   0.28  -0.26     0.26  -0.02   0.14
    66   1     0.30  -0.00  -0.13    -0.21  -0.06   0.28     0.21  -0.06  -0.14
    67   6     0.15   0.01   0.05     0.04   0.01   0.01    -0.15   0.01  -0.01
    68   1    -0.02  -0.07  -0.02     0.35   0.29  -0.03    -0.11   0.01   0.02
    69   1     0.30   0.00  -0.13    -0.22   0.06   0.29    -0.18  -0.07   0.11
    70   1     0.25   0.09   0.20     0.03  -0.28  -0.27    -0.26   0.01  -0.11
    71   6     0.05  -0.04   0.15     0.02   0.01  -0.00     0.02   0.15  -0.13
    72   1     0.16  -0.19   0.14     0.03   0.03   0.01    -0.03   0.35  -0.10
    73   1     0.01  -0.03   0.28     0.03   0.01  -0.03     0.13   0.14  -0.30
    74   6     0.05   0.04   0.15     0.02  -0.00   0.01    -0.02   0.15   0.13
    75   1     0.01   0.03   0.28     0.02   0.00  -0.02    -0.14   0.14   0.30
    76   1     0.16   0.19   0.14     0.03  -0.02   0.01     0.03   0.35   0.10
                      7                      8                      9
                      A                      A                      A
 Frequencies --    232.7154               244.4603               246.0052
 Red. masses --      5.2646                 1.1268                11.1582
 Frc consts  --      0.1680                 0.0397                 0.3979
 IR Inten    --      0.0000                 0.0000                 0.0000
  Atom  AN      X      Y      Z        X      Y      Z        X      Y      Z
     1   6    -0.01  -0.02   0.05     0.01  -0.01   0.00     0.03  -0.11   0.12
     2   6     0.00  -0.02   0.06     0.01  -0.01   0.00     0.01  -0.14   0.14
     3   6     0.01  -0.01   0.08     0.00  -0.01   0.00    -0.01  -0.12   0.11
     4   6     0.01   0.00   0.09    -0.00  -0.01  -0.00    -0.00  -0.10   0.00
     5   6     0.00   0.00   0.07    -0.00  -0.01  -0.00     0.00  -0.08   0.00
     6   6    -0.01  -0.01   0.05     0.01  -0.01   0.00     0.03  -0.09   0.06
     7   6    -0.02  -0.01   0.03     0.01  -0.01   0.00     0.03  -0.07   0.09
     8   6    -0.01  -0.01   0.01     0.01  -0.00   0.00     0.01  -0.05   0.10
     9   6     0.01  -0.01   0.03     0.01  -0.00   0.00    -0.01  -0.11   0.12
    10   6     0.04   0.02   0.01     0.01   0.00   0.00    -0.02  -0.08   0.10
    11   6     0.03  -0.00   0.04     0.00  -0.00   0.00    -0.02  -0.11   0.08
    12   6     0.01   0.01   0.08    -0.00  -0.01  -0.00     0.01  -0.12  -0.11
    13   6     0.00   0.02   0.06    -0.01  -0.01  -0.00    -0.01  -0.14  -0.14
    14   6    -0.01   0.02   0.05    -0.01  -0.01  -0.00    -0.03  -0.11  -0.12
    15   6    -0.01   0.01   0.05    -0.01  -0.01  -0.00    -0.03  -0.09  -0.06
    16   6    -0.05  -0.00   0.02    -0.00  -0.01  -0.00    -0.02  -0.05  -0.03
    17   6    -0.05   0.00   0.02     0.00  -0.01   0.00     0.02  -0.05   0.03
    18   6    -0.08   0.01   0.01     0.01  -0.01   0.00     0.02  -0.02   0.03
    19   6    -0.05   0.00   0.01     0.01  -0.01   0.00     0.01  -0.02   0.06
    20   6    -0.02  -0.01   0.00     0.01  -0.00   0.00     0.01   0.05   0.10
    21   6    -0.03  -0.01  -0.01     0.01  -0.00  -0.00    -0.01   0.09   0.10
    22   6    -0.06   0.00   0.01     0.01  -0.01  -0.00    -0.01   0.05   0.07
    23   6    -0.08   0.01   0.01     0.01  -0.00  -0.00    -0.03   0.05   0.05
    24   6    -0.10   0.01   0.01     0.00  -0.00  -0.00    -0.01   0.01   0.02
    25   6    -0.10  -0.01   0.01    -0.00  -0.00   0.00     0.01   0.01  -0.02
    26   6    -0.08  -0.01   0.01    -0.01  -0.01  -0.00    -0.02  -0.02  -0.03
    27   6    -0.05  -0.00   0.01    -0.01  -0.01  -0.00    -0.01  -0.02  -0.06
    28   6    -0.02   0.01   0.03    -0.01  -0.01  -0.00    -0.03  -0.07  -0.09
    29   6     0.03   0.00   0.04    -0.00  -0.00  -0.00     0.02  -0.11  -0.08
    30   6    -0.00   0.01  -0.02    -0.01   0.00  -0.00    -0.03   0.10  -0.11
    31   6     0.04  -0.02   0.00    -0.01   0.01  -0.00    -0.03   0.05  -0.09
    32   6     0.09  -0.03  -0.01    -0.01   0.01  -0.00    -0.05   0.06  -0.07
    33   6     0.03  -0.00  -0.04    -0.01   0.00  -0.00    -0.04   0.09  -0.07
    34   6    -0.02   0.01  -0.07    -0.01   0.00  -0.00    -0.04   0.11  -0.09
    35   6    -0.03   0.02  -0.04    -0.01  -0.00  -0.00     0.00   0.12  -0.13
    36   6    -0.03   0.01  -0.01    -0.01  -0.00   0.00     0.01   0.09  -0.10
    37   6    -0.02   0.01   0.00    -0.01  -0.00  -0.00    -0.01   0.05  -0.10
    38   6    -0.01   0.01   0.01    -0.01  -0.00  -0.00    -0.01  -0.05  -0.10
    39   6     0.01   0.01   0.03    -0.01  -0.00  -0.00     0.01  -0.11  -0.12
    40   6     0.04  -0.02   0.01    -0.01   0.00  -0.00     0.02  -0.08  -0.10
    41   6     0.09   0.03  -0.01     0.01   0.01   0.00     0.05   0.06   0.07
    42   6     0.03   0.00  -0.04     0.01   0.00   0.00     0.04   0.09   0.07
    43   6    -0.02  -0.01  -0.07     0.01   0.00   0.00     0.04   0.11   0.09
    44   6    -0.04  -0.00  -0.09     0.00   0.00   0.00     0.00   0.09  -0.00
    45   6    -0.04  -0.00  -0.07     0.00  -0.00   0.00     0.00   0.09  -0.00
    46   6    -0.04   0.01  -0.04    -0.00  -0.00   0.00     0.02   0.10  -0.08
    47   6    -0.06  -0.00   0.01    -0.01  -0.01   0.00     0.01   0.05  -0.07
    48   6    -0.08  -0.01   0.01    -0.01  -0.00   0.00     0.03   0.05  -0.05
    49   6    -0.07  -0.00  -0.01    -0.00  -0.00   0.00     0.02   0.07  -0.05
    50   6    -0.07   0.00  -0.01     0.00  -0.00  -0.00    -0.02   0.07   0.05
    51   6    -0.04  -0.01  -0.04     0.00  -0.00  -0.00    -0.02   0.10   0.08
    52   6    -0.03  -0.02  -0.04     0.01  -0.00   0.00    -0.00   0.12   0.13
    53   6    -0.02  -0.02  -0.04     0.01   0.00   0.00     0.03   0.13   0.14
    54   6    -0.00  -0.01  -0.02     0.01   0.00   0.00     0.03   0.10   0.11
    55   6     0.04   0.02   0.00     0.01   0.01   0.00     0.03   0.05   0.09
    56   6     0.07  -0.02   0.00    -0.00   0.00   0.00     0.04  -0.09  -0.10
    57   6     0.07   0.02   0.00     0.00   0.00  -0.00    -0.04  -0.09   0.10
    58   6    -0.02   0.02  -0.04    -0.01   0.00  -0.00    -0.03   0.13  -0.14
    59   6     0.12  -0.02  -0.02    -0.01   0.01   0.00     0.00  -0.01  -0.05
    60   6     0.12   0.03  -0.02     0.01   0.01  -0.00    -0.00  -0.01   0.05
    61   6     0.14   0.00  -0.09     0.00   0.03   0.01     0.00   0.00  -0.00
    62   6     0.14  -0.00  -0.09    -0.00   0.03  -0.01    -0.00   0.00   0.00
    63   6    -0.01   0.00   0.07     0.01   0.00   0.04     0.00  -0.00  -0.00
    64   1    -0.11   0.20   0.22     0.34  -0.26   0.03    -0.08   0.07   0.00
    65   1    -0.12  -0.21   0.16    -0.02   0.28  -0.23     0.02  -0.08   0.08
    66   1     0.07   0.02  -0.00    -0.26  -0.05   0.33     0.07   0.00  -0.09
    67   6    -0.01  -0.00   0.07    -0.01   0.00  -0.04    -0.00  -0.00   0.00
    68   1    -0.11  -0.20   0.22    -0.34  -0.26  -0.03     0.08   0.07  -0.00
    69   1     0.07  -0.02  -0.00     0.26  -0.05  -0.33    -0.07   0.00   0.09
    70   1    -0.12   0.21   0.16     0.02   0.28   0.23    -0.02  -0.08  -0.08
    71   6     0.14   0.03  -0.12    -0.01   0.02   0.01     0.01  -0.00  -0.01
    72   1     0.07   0.12  -0.11    -0.01  -0.00  -0.00     0.03   0.01  -0.01
    73   1     0.19   0.01  -0.21     0.00   0.02   0.04     0.02  -0.00  -0.02
    74   6     0.14  -0.03  -0.12     0.01   0.02  -0.01    -0.01  -0.00   0.01
    75   1     0.19  -0.01  -0.20    -0.00   0.02  -0.04    -0.02  -0.00   0.02
    76   1     0.07  -0.12  -0.11     0.01  -0.00   0.00    -0.03   0.01   0.01
                     10                     11                     12
                      A                      A                      A
 Frequencies --    250.6236               260.8685               262.9681
 Red. masses --     11.2969                 7.1217                11.7998
 Frc consts  --      0.4181                 0.2855                 0.4808
 IR Inten    --      0.0000                 0.0000                 0.0000
  Atom  AN      X      Y      Z        X      Y      Z        X      Y      Z
     1   6    -0.02  -0.07  -0.05    -0.06   0.04  -0.01     0.09  -0.02   0.03
     2   6    -0.01  -0.07  -0.06    -0.05  -0.02   0.01     0.08   0.02  -0.06
     3   6     0.01  -0.02  -0.13    -0.03  -0.02   0.02     0.10   0.03  -0.12
     4   6    -0.02  -0.00  -0.16     0.00  -0.01  -0.00     0.10   0.00  -0.08
     5   6    -0.04  -0.00  -0.13     0.00   0.03   0.00     0.13  -0.00   0.04
     6   6    -0.06  -0.02  -0.09    -0.04   0.04  -0.02     0.14  -0.03   0.08
     7   6     0.00  -0.14  -0.01    -0.09   0.06  -0.01     0.06  -0.04   0.04
     8   6     0.00  -0.21   0.01    -0.08  -0.00   0.01     0.03  -0.00  -0.01
     9   6    -0.02  -0.16   0.00    -0.07  -0.05   0.03     0.04   0.03  -0.05
    10   6    -0.02  -0.14   0.01    -0.09  -0.10   0.02     0.04   0.02  -0.08
    11   6     0.04  -0.01  -0.12    -0.03  -0.05   0.01     0.11   0.02  -0.16
    12   6     0.01   0.02  -0.13     0.03  -0.02  -0.02     0.10  -0.03  -0.12
    13   6    -0.01   0.07  -0.06     0.05  -0.02  -0.01     0.08  -0.02  -0.06
    14   6    -0.02   0.07  -0.05     0.06   0.04   0.01     0.09   0.01   0.03
    15   6    -0.06   0.02  -0.09     0.04   0.04   0.02     0.14   0.03   0.08
    16   6    -0.06   0.01  -0.06     0.04   0.07   0.01     0.18   0.02   0.11
    17   6    -0.06  -0.01  -0.06    -0.04   0.06  -0.00     0.18  -0.02   0.11
    18   6    -0.05  -0.04  -0.02    -0.08   0.09  -0.00     0.10  -0.03   0.10
    19   6     0.00  -0.10  -0.00    -0.11   0.11   0.01     0.06  -0.02   0.07
    20   6    -0.00  -0.21  -0.00    -0.08  -0.01   0.01    -0.03  -0.01   0.00
    21   6     0.01  -0.14   0.01    -0.08   0.05   0.03    -0.04   0.02   0.05
    22   6    -0.00  -0.10   0.00    -0.11   0.11   0.03    -0.04   0.02   0.08
    23   6    -0.04  -0.04   0.03    -0.08   0.08   0.04    -0.08   0.03   0.13
    24   6    -0.06  -0.01   0.01    -0.05   0.08   0.01     0.00   0.00   0.10
    25   6    -0.06   0.01   0.01     0.05   0.08  -0.01     0.00  -0.00   0.10
    26   6    -0.05   0.04  -0.02     0.09   0.09   0.00     0.10   0.03   0.09
    27   6     0.00   0.10  -0.00     0.11   0.11  -0.00     0.06   0.02   0.07
    28   6     0.00   0.14  -0.01     0.09   0.06   0.01     0.06   0.03   0.04
    29   6     0.04   0.01  -0.12     0.03  -0.05  -0.01     0.11  -0.02  -0.16
    30   6    -0.01   0.16   0.01     0.09  -0.07   0.02    -0.06   0.04  -0.04
    31   6    -0.02   0.14   0.01     0.10  -0.11  -0.00    -0.05   0.02  -0.06
    32   6     0.05   0.07   0.04     0.08  -0.09   0.01    -0.08   0.03  -0.09
    33   6     0.09   0.01   0.10     0.04  -0.06   0.01    -0.15   0.02  -0.11
    34   6     0.06   0.02   0.12     0.04  -0.04   0.02    -0.13   0.03  -0.09
    35   6     0.00   0.07   0.06     0.06   0.03  -0.02    -0.08  -0.01   0.05
    36   6     0.01   0.14   0.01     0.08   0.05  -0.03    -0.04  -0.02   0.05
    37   6    -0.00   0.21  -0.00     0.08  -0.01  -0.01    -0.03   0.01   0.00
    38   6     0.00   0.21   0.01     0.08  -0.00  -0.01     0.03   0.00  -0.01
    39   6    -0.02   0.16   0.00     0.08  -0.06  -0.03     0.04  -0.03  -0.05
    40   6    -0.02   0.14   0.01     0.09  -0.10  -0.02     0.03  -0.02  -0.08
    41   6     0.04  -0.07   0.04    -0.08  -0.09  -0.01    -0.07  -0.02  -0.09
    42   6     0.09  -0.01   0.10    -0.04  -0.06  -0.01    -0.15  -0.02  -0.10
    43   6     0.06  -0.02   0.12    -0.04  -0.04  -0.02    -0.13  -0.03  -0.08
    44   6     0.04   0.00   0.15    -0.00  -0.03  -0.00    -0.13   0.00  -0.05
    45   6     0.01   0.00   0.14    -0.00   0.02   0.00    -0.10  -0.00   0.07
    46   6    -0.02   0.02   0.11     0.03   0.03  -0.03    -0.10  -0.02   0.12
    47   6    -0.00   0.10   0.00     0.11   0.11  -0.03    -0.04  -0.02   0.09
    48   6    -0.04   0.04   0.03     0.08   0.08  -0.04    -0.08  -0.03   0.13
    49   6    -0.04   0.01   0.08     0.04   0.06  -0.02    -0.13  -0.02   0.17
    50   6    -0.04  -0.01   0.08    -0.04   0.06   0.03    -0.13   0.02   0.17
    51   6    -0.02  -0.02   0.11    -0.03   0.03   0.03    -0.10   0.02   0.12
    52   6     0.00  -0.07   0.06    -0.06   0.03   0.02    -0.08   0.00   0.05
    53   6     0.01  -0.07   0.06    -0.07  -0.04  -0.02    -0.09  -0.03  -0.04
    54   6    -0.01  -0.16   0.01    -0.09  -0.07  -0.02    -0.05  -0.04  -0.04
    55   6    -0.02  -0.14   0.01    -0.11  -0.11  -0.00    -0.05  -0.02  -0.06
    56   6     0.02   0.07  -0.04     0.05  -0.07  -0.02     0.06  -0.03  -0.12
    57   6     0.02  -0.07  -0.04    -0.05  -0.07   0.02     0.06   0.03  -0.12
    58   6     0.01   0.07   0.06     0.06  -0.04   0.02    -0.10   0.03  -0.04
    59   6     0.05   0.03  -0.01     0.04  -0.07  -0.01    -0.00  -0.00  -0.08
    60   6     0.05  -0.03  -0.01    -0.04  -0.07   0.01    -0.00   0.00  -0.08
    61   6     0.06   0.00  -0.05    -0.03  -0.01   0.02    -0.02  -0.00  -0.00
    62   6     0.06  -0.00  -0.05     0.03  -0.01  -0.02    -0.02   0.00  -0.00
    63   6    -0.01  -0.00   0.03     0.01  -0.01  -0.02    -0.00   0.00  -0.02
    64   1    -0.00   0.05   0.09     0.19  -0.21  -0.08     0.00  -0.02  -0.03
    65   1    -0.06  -0.06   0.03     0.02   0.19  -0.18     0.01   0.02  -0.03
    66   1    -0.02  -0.00   0.04    -0.14  -0.03   0.15    -0.01   0.01  -0.01
    67   6    -0.01   0.00   0.03    -0.01  -0.01   0.02    -0.00  -0.00  -0.02
    68   1    -0.00  -0.05   0.09    -0.19  -0.21   0.08     0.00   0.02  -0.04
    69   1    -0.02   0.00   0.04     0.14  -0.03  -0.15    -0.01  -0.00  -0.01
    70   1    -0.06   0.06   0.03    -0.02   0.19   0.18     0.01  -0.02  -0.03
    71   6     0.05   0.01  -0.05     0.06  -0.01  -0.05     0.00  -0.01  -0.01
    72   1     0.02   0.03  -0.05     0.04   0.04  -0.04     0.05  -0.05  -0.01
    73   1     0.05   0.01  -0.07     0.10  -0.02  -0.09    -0.01  -0.01   0.03
    74   6     0.05  -0.01  -0.05    -0.06  -0.01   0.05     0.01   0.01  -0.01
    75   1     0.05  -0.01  -0.07    -0.10  -0.02   0.09    -0.01   0.01   0.02
    76   1     0.02  -0.03  -0.05    -0.04   0.04   0.04     0.05   0.05  -0.01
                     13                     14                     15
                      A                      A                      A
 Frequencies --    310.4314               327.8519               335.1548
 Red. masses --      8.6788                 6.0247                11.6040
 Frc consts  --      0.4928                 0.3815                 0.7680
 IR Inten    --      0.0000                 0.0000                 0.0000
  Atom  AN      X      Y      Z        X      Y      Z        X      Y      Z
     1   6    -0.06   0.05  -0.08     0.00  -0.04   0.04    -0.06   0.10  -0.09
     2   6    -0.05   0.02  -0.02     0.00  -0.07   0.05    -0.03  -0.04   0.05
     3   6    -0.07  -0.01   0.04     0.00  -0.05   0.03    -0.03  -0.07   0.11
     4   6    -0.06  -0.00  -0.02    -0.00  -0.05   0.00     0.00  -0.03   0.00
     5   6    -0.09  -0.00  -0.15    -0.00  -0.03  -0.00     0.00   0.06   0.00
     6   6    -0.07   0.03  -0.14    -0.00  -0.02   0.02    -0.06   0.09  -0.09
     7   6    -0.02   0.04  -0.05    -0.02  -0.02   0.02    -0.08   0.14  -0.09
     8   6    -0.03   0.03  -0.01    -0.00  -0.06   0.01    -0.04   0.05  -0.02
     9   6    -0.04   0.01  -0.00     0.01  -0.06   0.02    -0.04  -0.07   0.06
    10   6    -0.03   0.02   0.00     0.05   0.02  -0.02    -0.07  -0.08   0.10
    11   6    -0.09  -0.01   0.09     0.01  -0.01   0.01    -0.05  -0.09   0.11
    12   6    -0.07   0.01   0.04    -0.00  -0.05  -0.03     0.03  -0.07  -0.11
    13   6    -0.05  -0.02  -0.02    -0.00  -0.07  -0.05     0.03  -0.04  -0.05
    14   6    -0.06  -0.05  -0.08    -0.00  -0.04  -0.04     0.06   0.10   0.09
    15   6    -0.07  -0.03  -0.14     0.00  -0.02  -0.02     0.06   0.09   0.09
    16   6     0.01  -0.00  -0.07     0.02   0.03  -0.01     0.06   0.08   0.07
    17   6     0.01   0.00  -0.07    -0.02   0.03   0.01    -0.06   0.08  -0.07
    18   6     0.13  -0.03  -0.03    -0.08   0.07  -0.00    -0.08   0.06  -0.07
    19   6     0.05  -0.00  -0.02    -0.07   0.07   0.01    -0.07   0.08  -0.09
    20   6    -0.02   0.03   0.01     0.00  -0.07  -0.01     0.01   0.02  -0.03
    21   6    -0.00   0.05   0.05    -0.01  -0.03  -0.01     0.03  -0.09  -0.10
    22   6     0.05   0.00   0.01    -0.07   0.06   0.03     0.05  -0.06  -0.11
    23   6     0.12  -0.02   0.00    -0.07   0.07   0.04     0.09  -0.08  -0.12
    24   6     0.21  -0.02  -0.03    -0.06   0.08   0.02     0.02  -0.01  -0.06
    25   6     0.21   0.02  -0.03     0.06   0.08  -0.02    -0.02  -0.01   0.06
    26   6     0.13   0.03  -0.03     0.08   0.07   0.00     0.08   0.06   0.07
    27   6     0.05   0.00  -0.02     0.07   0.07  -0.01     0.07   0.08   0.09
    28   6    -0.02  -0.04  -0.05     0.02  -0.02  -0.02     0.08   0.14   0.09
    29   6    -0.09   0.01   0.09    -0.01  -0.01  -0.01     0.05  -0.09  -0.11
    30   6    -0.04  -0.01   0.00    -0.01  -0.06   0.03    -0.04   0.09  -0.04
    31   6    -0.03  -0.02  -0.00    -0.07   0.03   0.01    -0.06   0.07  -0.07
    32   6     0.00  -0.03  -0.02    -0.11   0.06   0.00    -0.09   0.08  -0.09
    33   6    -0.11   0.01  -0.06    -0.02  -0.01   0.02    -0.06   0.07  -0.07
    34   6    -0.09   0.01  -0.03     0.00  -0.05   0.04    -0.03   0.05  -0.07
    35   6    -0.03  -0.05   0.09     0.00  -0.06   0.05    -0.02  -0.10   0.11
    36   6    -0.00  -0.05   0.05     0.01  -0.03   0.01    -0.03  -0.09   0.10
    37   6    -0.02  -0.03   0.01    -0.00  -0.07   0.01    -0.01   0.02   0.03
    38   6    -0.03  -0.03  -0.01     0.00  -0.06  -0.01     0.04   0.05   0.02
    39   6    -0.04  -0.01  -0.00    -0.01  -0.06  -0.02     0.04  -0.07  -0.06
    40   6    -0.03  -0.02   0.00    -0.05   0.02   0.02     0.07  -0.09  -0.10
    41   6     0.00   0.03  -0.02     0.11   0.06  -0.00     0.09   0.08   0.09
    42   6    -0.11  -0.01  -0.06     0.02  -0.01  -0.02     0.06   0.07   0.07
    43   6    -0.09  -0.01  -0.03    -0.00  -0.05  -0.04     0.03   0.05   0.07
    44   6    -0.06  -0.00   0.02     0.00  -0.05  -0.00     0.00   0.01   0.00
    45   6    -0.03   0.00   0.17     0.00  -0.04  -0.00     0.00  -0.07   0.00
    46   6    -0.02  -0.04   0.16     0.00  -0.03   0.01    -0.04  -0.11   0.13
    47   6     0.05  -0.00   0.01     0.07   0.06  -0.03    -0.05  -0.06   0.11
    48   6     0.12   0.02   0.00     0.07   0.07  -0.04    -0.09  -0.07   0.12
    49   6     0.02  -0.01   0.09     0.02   0.02  -0.01    -0.07  -0.10   0.12
    50   6     0.02   0.01   0.09    -0.02   0.02   0.01     0.07  -0.10  -0.12
    51   6    -0.02   0.04   0.16    -0.00  -0.03  -0.01     0.04  -0.11  -0.13
    52   6    -0.03   0.05   0.09    -0.00  -0.06  -0.05     0.02  -0.10  -0.11
    53   6    -0.05   0.02   0.02    -0.01  -0.07  -0.06     0.03   0.04   0.02
    54   6    -0.04   0.01   0.00     0.01  -0.06  -0.03     0.04   0.09   0.04
    55   6    -0.03   0.02  -0.00     0.07   0.03  -0.01     0.06   0.07   0.07
    56   6    -0.00  -0.01   0.02    -0.06   0.04   0.04     0.09  -0.10  -0.14
    57   6    -0.00   0.01   0.02     0.06   0.04  -0.04    -0.09  -0.10   0.14
    58   6    -0.05  -0.02   0.02     0.01  -0.07   0.06    -0.03   0.04  -0.02
    59   6     0.07  -0.03  -0.01    -0.09   0.09   0.03    -0.00  -0.00  -0.06
    60   6     0.07   0.03  -0.01     0.09   0.09  -0.03     0.00  -0.00   0.06
    61   6     0.16   0.00  -0.08     0.09   0.10  -0.05     0.01   0.02  -0.01
    62   6     0.16  -0.00  -0.08    -0.09   0.10   0.05    -0.01   0.02   0.01
    63   6     0.06  -0.04   0.09     0.06   0.01   0.10     0.02  -0.02   0.02
    64   1     0.08   0.07   0.23     0.03   0.16   0.24     0.02   0.01   0.06
    65   1    -0.04  -0.14   0.10     0.02  -0.15   0.20     0.03  -0.04   0.05
    66   1     0.03  -0.06   0.10     0.08  -0.07  -0.01     0.02  -0.05  -0.01
    67   6     0.06   0.04   0.09    -0.06   0.01  -0.10    -0.02  -0.02  -0.02
    68   1     0.08  -0.07   0.23    -0.03   0.16  -0.24    -0.02   0.01  -0.06
    69   1     0.03   0.06   0.10    -0.08  -0.07   0.01    -0.02  -0.05   0.01
    70   1    -0.04   0.14   0.10    -0.02  -0.15  -0.20    -0.03  -0.04  -0.05
    71   6     0.11   0.01  -0.06    -0.12   0.05   0.12     0.01   0.00   0.02
    72   1     0.04   0.05  -0.07    -0.09  -0.08   0.10     0.05  -0.02   0.02
    73   1     0.15  -0.00  -0.11    -0.14   0.07   0.26     0.02   0.01   0.05
    74   6     0.11  -0.01  -0.06     0.12   0.05  -0.12    -0.01   0.00  -0.02
    75   1     0.15   0.00  -0.11     0.14   0.07  -0.25    -0.02   0.01  -0.05
    76   1     0.04  -0.05  -0.07     0.09  -0.08  -0.10    -0.05  -0.02  -0.02
                     16                     17                     18
                      A                      A                      A
 Frequencies --    336.9187               342.7817               349.1095
 Red. masses --     10.2150                11.9660                11.6399
 Frc consts  --      0.6832                 0.8284                 0.8358
 IR Inten    --      0.0000                 0.0000                 0.0000
  Atom  AN      X      Y      Z        X      Y      Z        X      Y      Z
     1   6    -0.02   0.06   0.00    -0.03   0.15  -0.07     0.05  -0.08   0.17
     2   6    -0.03  -0.01  -0.01    -0.00   0.15  -0.08     0.01  -0.07   0.17
     3   6     0.00   0.02  -0.09    -0.03   0.03   0.10    -0.04  -0.07   0.15
     4   6     0.02  -0.00  -0.08     0.01   0.00   0.18     0.00  -0.06   0.00
     5   6     0.05  -0.00   0.05     0.05   0.00   0.16     0.00  -0.07   0.00
     6   6     0.06  -0.00   0.07     0.05   0.03   0.08     0.09  -0.09   0.13
     7   6    -0.07   0.14  -0.02    -0.06   0.17  -0.09     0.00   0.08   0.05
     8   6    -0.04   0.05   0.00    -0.02   0.14  -0.09    -0.00   0.23   0.00
     9   6    -0.06  -0.08   0.03     0.03   0.17  -0.10     0.02   0.10   0.04
    10   6    -0.10  -0.16   0.03     0.00   0.06  -0.05     0.02   0.07  -0.01
    11   6     0.02   0.00  -0.12    -0.05   0.00   0.09    -0.03  -0.05   0.06
    12   6     0.00  -0.02  -0.09    -0.03  -0.03   0.10     0.04  -0.07  -0.15
    13   6    -0.03   0.01  -0.01    -0.00  -0.15  -0.08    -0.01  -0.07  -0.17
    14   6    -0.02  -0.06   0.00    -0.03  -0.15  -0.07    -0.05  -0.08  -0.17
    15   6     0.06   0.00   0.07     0.05  -0.03   0.08    -0.09  -0.09  -0.13
    16   6     0.12   0.00   0.10     0.07  -0.01   0.05    -0.06  -0.07  -0.05
    17   6     0.12  -0.00   0.10     0.07   0.01   0.05     0.06  -0.07   0.05
    18   6     0.04   0.06   0.03     0.01   0.03   0.01     0.06  -0.03   0.02
    19   6    -0.08   0.17   0.01    -0.02   0.06  -0.05    -0.01   0.04   0.02
    20   6    -0.04   0.06   0.01    -0.02  -0.14  -0.09    -0.00   0.24   0.01
    21   6    -0.06   0.15   0.04     0.02  -0.17  -0.10    -0.02   0.11  -0.02
    22   6    -0.08   0.18   0.03    -0.00  -0.05  -0.05    -0.02   0.05   0.01
    23   6     0.02   0.07  -0.03    -0.01  -0.03   0.01     0.03  -0.01  -0.02
    24   6     0.09   0.01  -0.01     0.00   0.00   0.01     0.03  -0.01  -0.00
    25   6     0.09  -0.01  -0.01     0.00  -0.00   0.01    -0.03  -0.01   0.00
    26   6     0.04  -0.06   0.03     0.01  -0.03   0.01    -0.06  -0.03  -0.02
    27   6    -0.08  -0.17   0.01    -0.02  -0.06  -0.05     0.01   0.04  -0.02
    28   6    -0.07  -0.14  -0.02    -0.06  -0.17  -0.09    -0.00   0.08  -0.05
    29   6     0.02  -0.00  -0.12    -0.05  -0.00   0.09     0.03  -0.05  -0.06
    30   6    -0.07   0.07  -0.01    -0.06   0.17  -0.08     0.01   0.09   0.05
    31   6    -0.10   0.16   0.01    -0.02   0.07  -0.04    -0.00   0.04   0.02
    32   6    -0.00   0.06   0.03     0.00   0.04   0.01     0.06  -0.03   0.03
    33   6     0.08  -0.01   0.10     0.09   0.00   0.07     0.07  -0.08   0.07
    34   6     0.03  -0.02   0.06     0.07   0.03   0.09     0.10  -0.09   0.14
    35   6    -0.02  -0.06   0.00    -0.00   0.15  -0.08     0.02  -0.05   0.14
    36   6    -0.06  -0.15   0.04     0.02   0.17  -0.10     0.02   0.11   0.02
    37   6    -0.04  -0.06   0.01    -0.02   0.14  -0.09     0.00   0.24  -0.01
    38   6    -0.04  -0.05   0.00    -0.02  -0.14  -0.09     0.00   0.23  -0.00
    39   6    -0.06   0.08   0.03     0.03  -0.17  -0.10    -0.02   0.10  -0.04
    40   6    -0.10   0.16   0.03     0.00  -0.06  -0.04    -0.02   0.07   0.01
    41   6    -0.00  -0.06   0.03     0.00  -0.04   0.01    -0.06  -0.03  -0.03
    42   6     0.08   0.01   0.10     0.09  -0.00   0.07    -0.07  -0.08  -0.07
    43   6     0.03   0.02   0.06     0.07  -0.03   0.09    -0.10  -0.09  -0.14
    44   6     0.04  -0.00   0.04     0.07   0.00   0.17    -0.00  -0.06   0.00
    45   6     0.02  -0.00  -0.09     0.02   0.00   0.17     0.00  -0.05   0.00
    46   6     0.02  -0.00  -0.09    -0.02   0.03   0.09    -0.03  -0.06   0.13
    47   6    -0.08  -0.18   0.03    -0.00   0.05  -0.05     0.02   0.05  -0.01
    48   6     0.02  -0.07  -0.03    -0.01   0.03   0.01    -0.03  -0.01   0.02
    49   6     0.06   0.00  -0.12    -0.05   0.01   0.07    -0.04  -0.05   0.06
    50   6     0.06  -0.00  -0.12    -0.05  -0.01   0.07     0.04  -0.05  -0.06
    51   6     0.02  -0.00  -0.09    -0.02  -0.03   0.09     0.03  -0.06  -0.13
    52   6    -0.02   0.06   0.00    -0.00  -0.15  -0.08    -0.02  -0.05  -0.14
    53   6    -0.02  -0.01   0.01    -0.03  -0.15  -0.07    -0.06  -0.07  -0.16
    54   6    -0.07  -0.07  -0.01    -0.06  -0.17  -0.08    -0.01   0.09  -0.05
    55   6    -0.10  -0.16   0.01    -0.02  -0.07  -0.04     0.00   0.04  -0.02
    56   6    -0.03   0.08  -0.02     0.00  -0.04   0.01     0.02   0.00  -0.01
    57   6    -0.03  -0.08  -0.02     0.00   0.04   0.01    -0.02   0.00   0.01
    58   6    -0.02   0.01   0.01    -0.03   0.15  -0.07     0.06  -0.07   0.16
    59   6     0.04   0.02   0.00     0.00   0.00   0.00     0.02  -0.00   0.00
    60   6     0.04  -0.02   0.00     0.00  -0.00   0.00    -0.02  -0.00  -0.00
    61   6     0.10   0.00  -0.08     0.01   0.00  -0.01    -0.02  -0.03   0.01
    62   6     0.10  -0.00  -0.08     0.01  -0.00  -0.01     0.02  -0.03  -0.01
    63   6     0.04  -0.05   0.06    -0.00  -0.00   0.00    -0.02  -0.00  -0.03
    64   1     0.08   0.01   0.18     0.00  -0.00   0.01    -0.02  -0.03  -0.06
    65   1    -0.04  -0.12   0.06    -0.02  -0.01  -0.01    -0.02   0.03  -0.06
    66   1    -0.01  -0.10   0.08    -0.01  -0.01   0.01    -0.02   0.03  -0.00
    67   6     0.04   0.05   0.06    -0.00   0.00   0.00     0.02  -0.00   0.03
    68   1     0.08  -0.01   0.18     0.00   0.00   0.01     0.02  -0.03   0.06
    69   1    -0.01   0.10   0.08    -0.01   0.01   0.01     0.02   0.03   0.00
    70   1    -0.04   0.12   0.06    -0.02   0.01  -0.01     0.02   0.03   0.06
    71   6     0.05  -0.02  -0.03    -0.00  -0.01  -0.00     0.02  -0.01  -0.03
    72   1    -0.00  -0.05  -0.04    -0.01  -0.02  -0.00     0.01   0.02  -0.02
    73   1     0.03  -0.02  -0.00    -0.00  -0.00   0.01     0.01  -0.01  -0.06
    74   6     0.05   0.02  -0.03    -0.00   0.01  -0.00    -0.02  -0.01   0.03
    75   1     0.03   0.02  -0.00    -0.00   0.00   0.01    -0.01  -0.01   0.06
    76   1    -0.00   0.05  -0.04    -0.01   0.02  -0.00    -0.01   0.02   0.02
                     19                     20                     21
                      A                      A                      A
 Frequencies --    361.0077               372.8112               378.1890
 Red. masses --     11.0855                 2.5869                 5.2163
 Frc consts  --      0.8512                 0.2118                 0.4396
 IR Inten    --      0.0000                 0.0000                 0.0000
  Atom  AN      X      Y      Z        X      Y      Z        X      Y      Z
     1   6     0.02  -0.03   0.08    -0.01  -0.00  -0.01    -0.03   0.04  -0.05
     2   6     0.02  -0.04   0.08    -0.01  -0.02   0.00    -0.04   0.01  -0.03
     3   6     0.06  -0.01   0.06     0.01  -0.00   0.00    -0.03  -0.01   0.01
     4   6     0.05   0.00   0.20     0.01   0.00   0.01     0.00  -0.02  -0.00
     5   6     0.06   0.00   0.21     0.00  -0.00   0.00     0.00  -0.00  -0.00
     6   6    -0.01  -0.01   0.09    -0.01  -0.00  -0.00    -0.00   0.00  -0.03
     7   6    -0.01   0.03   0.02    -0.02   0.01  -0.01    -0.01   0.06  -0.04
     8   6     0.00   0.01   0.04    -0.02  -0.00  -0.01    -0.02   0.06  -0.00
     9   6     0.01   0.01   0.03    -0.01  -0.02   0.00    -0.05  -0.00  -0.00
    10   6     0.03   0.02  -0.04    -0.00  -0.01  -0.01    -0.08  -0.06   0.02
    11   6     0.15   0.02  -0.13     0.03   0.00  -0.01    -0.03  -0.02   0.01
    12   6     0.06   0.01   0.06     0.01   0.00   0.00     0.03  -0.01  -0.01
    13   6     0.02   0.04   0.08    -0.01   0.02   0.00     0.04   0.01   0.03
    14   6     0.02   0.03   0.08    -0.01   0.00  -0.01     0.03   0.04   0.05
    15   6    -0.01   0.01   0.09    -0.01   0.00  -0.00     0.00   0.00   0.03
    16   6    -0.17  -0.02  -0.06    -0.01  -0.00   0.00    -0.03  -0.02   0.01
    17   6    -0.17   0.02  -0.06    -0.01   0.00   0.00     0.03  -0.02  -0.01
    18   6    -0.14   0.07  -0.08     0.00   0.00   0.00     0.11  -0.04   0.01
    19   6    -0.06   0.05  -0.04    -0.02   0.02  -0.00     0.08  -0.02   0.00
    20   6     0.00  -0.01   0.04    -0.02  -0.00  -0.01    -0.01   0.06   0.02
    21   6    -0.00  -0.00   0.03    -0.01   0.02   0.00     0.01   0.08   0.06
    22   6     0.03  -0.02  -0.05    -0.01   0.02   0.00     0.07  -0.01  -0.00
    23   6     0.12  -0.06  -0.13     0.02   0.00   0.00     0.08  -0.02  -0.03
    24   6     0.01  -0.00  -0.09     0.04  -0.00   0.00     0.09  -0.04  -0.02
    25   6     0.01   0.00  -0.09     0.04   0.00   0.00    -0.09  -0.04   0.02
    26   6    -0.14  -0.07  -0.08     0.00  -0.00   0.00    -0.11  -0.04  -0.01
    27   6    -0.06  -0.05  -0.04    -0.02  -0.02  -0.00    -0.08  -0.02  -0.00
    28   6    -0.00  -0.03   0.02    -0.02  -0.01  -0.01     0.01   0.06   0.04
    29   6     0.15  -0.02  -0.13     0.03  -0.00  -0.01     0.03  -0.02  -0.01
    30   6    -0.01   0.04   0.02    -0.02   0.01  -0.02     0.04  -0.03  -0.00
    31   6    -0.05   0.05  -0.03    -0.01   0.00  -0.01     0.08  -0.07   0.00
    32   6    -0.10   0.06  -0.08     0.01  -0.01   0.01     0.00  -0.03   0.02
    33   6    -0.18   0.03  -0.07     0.00  -0.00   0.00     0.03  -0.05   0.03
    34   6    -0.05   0.00   0.06    -0.00  -0.00  -0.01     0.03  -0.04   0.03
    35   6    -0.00  -0.04   0.09    -0.01  -0.01   0.00    -0.00   0.06  -0.08
    36   6    -0.00   0.00   0.03    -0.01  -0.02   0.00    -0.01   0.08  -0.06
    37   6     0.00   0.01   0.04    -0.02   0.00  -0.01     0.01   0.06  -0.02
    38   6     0.00  -0.01   0.04    -0.02   0.00  -0.01     0.02   0.06   0.00
    39   6     0.01  -0.01   0.03    -0.01   0.02   0.00     0.05  -0.00   0.00
    40   6     0.03  -0.02  -0.04    -0.00   0.01  -0.01     0.08  -0.06  -0.02
    41   6    -0.10  -0.06  -0.08     0.01   0.01   0.01    -0.00  -0.03  -0.02
    42   6    -0.18  -0.03  -0.07     0.00   0.00   0.00    -0.03  -0.05  -0.03
    43   6    -0.05  -0.00   0.06    -0.00   0.00  -0.01    -0.03  -0.04  -0.03
    44   6     0.01   0.00   0.18     0.01  -0.00   0.01    -0.00  -0.02  -0.00
    45   6     0.02   0.00   0.23     0.01   0.00   0.02     0.00   0.01  -0.00
    46   6     0.03  -0.02   0.10     0.01  -0.00   0.02    -0.01   0.03  -0.05
    47   6     0.03   0.02  -0.05    -0.01  -0.02   0.00    -0.07  -0.01   0.00
    48   6     0.12   0.06  -0.13     0.02  -0.00   0.00    -0.08  -0.02   0.03
    49   6     0.14   0.02  -0.12     0.02  -0.00   0.00    -0.02   0.01  -0.02
    50   6     0.14  -0.02  -0.12     0.02   0.00   0.00     0.02   0.01   0.02
    51   6     0.03   0.02   0.10     0.01   0.00   0.02     0.01   0.03   0.05
    52   6    -0.00   0.04   0.09    -0.01   0.01   0.00     0.00   0.06   0.08
    53   6    -0.01   0.03   0.07    -0.01  -0.01  -0.02    -0.01  -0.01   0.02
    54   6    -0.01  -0.04   0.02    -0.02  -0.01  -0.02    -0.04  -0.03   0.00
    55   6    -0.05  -0.05  -0.03    -0.01  -0.00  -0.01    -0.08  -0.07  -0.00
    56   6     0.09  -0.05  -0.11     0.02   0.00  -0.00     0.04  -0.02  -0.01
    57   6     0.09   0.05  -0.11     0.02  -0.00  -0.00    -0.04  -0.02   0.01
    58   6    -0.01  -0.03   0.07    -0.01   0.01  -0.02     0.01  -0.01  -0.02
    59   6     0.02  -0.00  -0.08    -0.00   0.00   0.02    -0.03   0.02   0.03
    60   6     0.02   0.00  -0.08    -0.00  -0.00   0.02     0.03   0.02  -0.03
    61   6     0.00   0.00  -0.04    -0.01   0.00   0.12     0.07   0.10  -0.07
    62   6     0.00   0.00  -0.04    -0.01  -0.00   0.12    -0.07   0.10   0.07
    63   6    -0.03  -0.00  -0.02    -0.00   0.15  -0.05     0.08  -0.02   0.09
    64   1    -0.01  -0.00   0.00    -0.10   0.11  -0.17     0.11   0.09   0.24
    65   1    -0.06  -0.00  -0.05     0.03   0.19  -0.06     0.07  -0.15   0.19
    66   1    -0.05   0.01   0.02     0.09   0.27  -0.03     0.06  -0.17  -0.01
    67   6    -0.03   0.00  -0.02    -0.00  -0.15  -0.05    -0.08  -0.02  -0.09
    68   1    -0.01   0.00  -0.00    -0.10  -0.11  -0.17    -0.11   0.09  -0.24
    69   1    -0.05  -0.01   0.02     0.09  -0.27  -0.03    -0.06  -0.17   0.01
    70   1    -0.06   0.00  -0.05     0.03  -0.19  -0.06    -0.07  -0.15  -0.19
    71   6     0.01  -0.05  -0.01     0.03   0.14  -0.02    -0.05   0.02   0.14
    72   1     0.04  -0.15  -0.02     0.04   0.39   0.03     0.00  -0.15   0.12
    73   1    -0.01  -0.04   0.09     0.11   0.11  -0.27    -0.05   0.04   0.31
    74   6     0.01   0.05  -0.01     0.03  -0.14  -0.02     0.05   0.02  -0.14
    75   1    -0.01   0.04   0.09     0.11  -0.11  -0.27     0.05   0.04  -0.31
    76   1     0.04   0.15  -0.02     0.04  -0.39   0.03    -0.00  -0.15  -0.12
                     22                     23                     24
                      A                      A                      A
 Frequencies --    391.9012               397.0427               397.7887
 Red. masses --      5.9272                11.8059                11.2002
 Frc consts  --      0.5364                 1.0965                 1.0442
 IR Inten    --      0.0000                 0.0000                 0.0000
  Atom  AN      X      Y      Z        X      Y      Z        X      Y      Z
     1   6    -0.00   0.01   0.04     0.18   0.03  -0.06     0.01  -0.01  -0.04
     2   6    -0.01  -0.03   0.11     0.19   0.02  -0.06     0.02   0.01   0.02
     3   6    -0.03  -0.02   0.09     0.10  -0.06   0.00     0.11   0.03   0.02
     4   6    -0.02   0.00   0.07     0.00  -0.02   0.00     0.17  -0.00  -0.05
     5   6    -0.03   0.00  -0.06     0.00   0.02  -0.00     0.16  -0.00  -0.11
     6   6    -0.02   0.03  -0.07     0.12   0.05  -0.01     0.11  -0.03  -0.10
     7   6     0.01   0.04   0.03     0.13   0.02  -0.07    -0.12  -0.05  -0.01
     8   6     0.01  -0.00   0.07     0.08   0.05  -0.05    -0.18  -0.03   0.05
     9   6     0.00  -0.04   0.09     0.14   0.06  -0.04    -0.11   0.03   0.07
    10   6     0.03  -0.02   0.02     0.06  -0.02   0.03    -0.08   0.10   0.03
    11   6    -0.01  -0.00   0.01     0.04  -0.12   0.05     0.09   0.02   0.06
    12   6    -0.03   0.02   0.09    -0.10  -0.06  -0.00     0.12  -0.03   0.02
    13   6    -0.01   0.03   0.11    -0.19   0.02   0.06     0.03  -0.01   0.02
    14   6    -0.00  -0.01   0.04    -0.18   0.03   0.06     0.01   0.01  -0.04
    15   6    -0.02  -0.03  -0.07    -0.12   0.05   0.01     0.11   0.03  -0.10
    16   6     0.01  -0.01  -0.07    -0.08   0.09   0.02     0.12   0.02  -0.07
    17   6     0.00   0.01  -0.07     0.08   0.09  -0.02     0.12  -0.02  -0.07
    18   6     0.08   0.01  -0.05     0.10   0.03  -0.02    -0.02  -0.06  -0.05
    19   6     0.00   0.05   0.01     0.09   0.01  -0.06    -0.11  -0.04   0.01
    20   6     0.01  -0.03   0.06    -0.10  -0.03  -0.01    -0.18  -0.04   0.05
    21   6    -0.02   0.01   0.06    -0.14  -0.01  -0.00    -0.11  -0.05   0.08
    22   6    -0.03   0.04   0.03    -0.09  -0.00  -0.02    -0.11  -0.04   0.05
    23   6    -0.01   0.01  -0.02    -0.07  -0.03   0.01    -0.02  -0.06   0.03
    24   6     0.12  -0.01  -0.08     0.01   0.00  -0.03    -0.02  -0.02  -0.01
    25   6     0.12   0.01  -0.08    -0.01   0.00   0.03    -0.02   0.02  -0.01
    26   6     0.08  -0.01  -0.05    -0.10   0.03   0.02    -0.02   0.06  -0.05
    27   6     0.00  -0.05   0.01    -0.09   0.01   0.06    -0.11   0.04   0.01
    28   6     0.01  -0.04   0.03    -0.13   0.02   0.07    -0.12   0.05  -0.01
    29   6    -0.01   0.00   0.01    -0.04  -0.12  -0.05     0.09  -0.02   0.06
    30   6    -0.00   0.10  -0.00     0.15  -0.06  -0.02    -0.12  -0.01  -0.00
    31   6     0.02   0.07   0.00     0.05   0.03  -0.05    -0.08  -0.08   0.01
    32   6     0.05   0.05  -0.05    -0.02   0.10  -0.07    -0.00  -0.09  -0.05
    33   6     0.10   0.01  -0.02     0.03   0.12  -0.05     0.08  -0.02  -0.10
    34   6     0.03   0.04  -0.06     0.10   0.04  -0.03     0.12  -0.02  -0.06
    35   6    -0.02   0.04   0.01     0.19  -0.04  -0.02     0.03   0.02   0.05
    36   6    -0.02  -0.01   0.06     0.14  -0.01   0.00    -0.11   0.05   0.08
    37   6     0.01   0.03   0.06     0.10  -0.03   0.01    -0.18   0.04   0.05
    38   6     0.01   0.00   0.07    -0.08   0.05   0.05    -0.18   0.03   0.05
    39   6     0.00   0.04   0.09    -0.14   0.06   0.04    -0.11  -0.03   0.07
    40   6     0.03   0.02   0.02    -0.06  -0.02  -0.03    -0.08  -0.10   0.03
    41   6     0.05  -0.05  -0.05     0.02   0.10   0.07    -0.00   0.09  -0.05
    42   6     0.10  -0.01  -0.02    -0.03   0.12   0.05     0.08   0.02  -0.10
    43   6     0.03  -0.04  -0.06    -0.10   0.04   0.03     0.12   0.02  -0.06
    44   6    -0.02   0.00  -0.10     0.00  -0.00  -0.00     0.18  -0.00  -0.03
    45   6    -0.03   0.00  -0.06     0.00  -0.03   0.00     0.19  -0.00   0.02
    46   6    -0.06   0.02   0.01     0.12  -0.06  -0.06     0.12   0.04   0.04
    47   6    -0.03  -0.05   0.03     0.09  -0.00   0.02    -0.11   0.04   0.04
    48   6    -0.01  -0.01  -0.02     0.07  -0.03  -0.01    -0.02   0.06   0.03
    49   6    -0.08  -0.00   0.03     0.09  -0.08  -0.04     0.11   0.02   0.00
    50   6    -0.08   0.00   0.03    -0.09  -0.08   0.04     0.11  -0.02   0.00
    51   6    -0.06  -0.02   0.01    -0.12  -0.06   0.06     0.12  -0.04   0.04
    52   6    -0.02  -0.04   0.01    -0.19  -0.04   0.02     0.03  -0.02   0.05
    53   6    -0.02  -0.09  -0.04    -0.21  -0.04   0.01     0.02  -0.00  -0.01
    54   6    -0.00  -0.10  -0.00    -0.15  -0.06   0.02    -0.12   0.01  -0.00
    55   6     0.02  -0.07   0.00    -0.05   0.03   0.05    -0.08   0.08   0.01
    56   6     0.04  -0.02  -0.04    -0.01  -0.09  -0.07     0.01  -0.11   0.03
    57   6     0.04   0.02  -0.04     0.01  -0.09   0.07     0.01   0.11   0.03
    58   6    -0.02   0.09  -0.04     0.21  -0.04  -0.01     0.02   0.00  -0.01
    59   6     0.05   0.00  -0.09    -0.01   0.01  -0.05    -0.02  -0.06  -0.02
    60   6     0.05  -0.00  -0.09     0.01   0.01   0.05    -0.02   0.06  -0.02
    61   6    -0.09   0.00   0.03     0.01   0.01  -0.01    -0.05  -0.00   0.00
    62   6    -0.09  -0.00   0.03    -0.01   0.01   0.01    -0.05   0.00   0.00
    63   6    -0.08   0.06  -0.07     0.00   0.01   0.01     0.01  -0.07   0.01
    64   1    -0.09  -0.02  -0.17     0.00   0.02   0.02     0.02  -0.07   0.00
    65   1    -0.04   0.13  -0.11    -0.01  -0.01   0.01     0.06  -0.06   0.05
    66   1    -0.07   0.11  -0.03     0.00   0.00   0.00     0.01  -0.12  -0.05
    67   6    -0.08  -0.06  -0.07    -0.00   0.01  -0.01     0.01   0.07   0.01
    68   1    -0.09   0.02  -0.17    -0.00   0.02  -0.02     0.02   0.07   0.00
    69   1    -0.07  -0.11  -0.03    -0.00   0.00  -0.00     0.01   0.12  -0.05
    70   1    -0.04  -0.13  -0.11     0.01  -0.01  -0.01     0.06   0.06   0.05
    71   6    -0.01  -0.10   0.03    -0.01  -0.01   0.01    -0.01  -0.04  -0.01
[...]
 0797,0.00184438,0.00052958,0.00117984,0.00102069,-0.00164887,-0.001518
 16,-0.00003100,-0.00438364,-0.00075126,0.00525236,-0.00086408,0.000859
 14,-0.00093622,-0.00039470,0.00006625,-0.00013067,0.00055904,-0.000651
 22,0.00099021,0.00007250,-0.00440642,-0.00905499,-0.00062836,-0.004955
 61,0.00075397,0.00001405,-0.00128941,0.00124656,0.00004697,0.01654157,
 0.53430713,0.00006879,0.00004228,0.00007803,-0.00028626,0.00018765,-0.
 00017535,0.00014721,0.00016134,0.00024397,0.00006817,0.00002439,0.0000
 6686,-0.00001023,-0.00002965,-0.00002162,-0.00002226,0.00003719,0.0000
 1550,0.00002497,-0.00000215,-0.00002623,-0.00029444,0.00018669,-0.0001
 8875,0.00089775,-0.00046588,0.00010037,0.00093713,-0.00186908,0.000468
 01,0.00015250,0.00033971,0.00000576,0.00012474,0.00019750,0.00015063,-
 0.00002837,-0.00000861,-0.00001776,0.00000724,0.00000707,0.00000962,-0
 .00001068,0.00000615,-0.00000484,-0.00000174,0.00000112,0.00001328,-0.
 00000241,0.00000168,0.00001570,0.00000603,0.00001041,0.00001472,0.0000
 0276,0.00000080,-0.00000377,-0.00007382,0.00012016,0.00025283,0.000052
 80,-0.00001690,0.00001252,0.00000927,0.00000035,0.00001379,0.00001130,
 0.00000822,0.00000287,0.00000068,-0.00000705,-0.00002156,0.00000464,0.
 00001765,0.00004409,0.00000116,-0.00000241,0.00000879,-0.00000087,0.00
 000488,0.00000698,-0.00000959,0.00000203,0.00001885,0.00022203,0.00017
 325,0.00025908,-0.00001767,-0.00001802,-0.00006892,-0.00006759,-0.0000
 2843,0.00006193,-0.00032605,-0.00102053,0.00028172,0.00003912,0.000323
 07,-0.00014480,0.00011671,0.00022442,-0.00020705,0.00001067,0.00000687
 ,-0.00000423,-0.00000867,0.00000267,-0.00000086,-0.00000261,0.00000656
 ,0.00002877,-0.00001473,0.00001033,-0.00001986,0.00001226,-0.00002146,
 0.00007283,-0.00010014,0.00006613,-0.00002740,0.00224022,-0.00094846,-
 0.00139861,-0.00026354,-0.00015254,-0.00016998,0.00010827,-0.00010357,
 -0.00003905,0.00009854,0.00005788,-0.00009989,0.00001757,-0.00002376,0
 .00001902,0.00000837,0.00000177,0.00001698,0.00000257,0.00000660,0.000
 00777,0.00001066,-0.00000207,0.00000545,0.00000308,-0.00000263,0.00005
 361,0.00000308,0.00000218,-0.00004877,-0.00000625,0.00002828,-0.000000
 56,0.00002568,0.00004590,-0.00005744,0.00003354,0.00009200,-0.00003225
 ,0.00093444,-0.00038020,-0.00050216,0.00016875,-0.00148580,-0.00076287
 ,-0.00046019,-0.00165230,-0.00021235,-0.00031907,-0.00076502,0.0006580
 7,-0.00000808,-0.00000252,0.00001754,-0.00391878,-0.00051538,0.0011945
 4,-0.00955551,-0.02750231,0.00052342,-0.00009132,0.01805415,0.00339458
 ,-0.00420838,0.00484770,-0.00470938,-0.00201416,0.00049882,-0.00032414
 ,0.00148891,0.00073894,-0.00065776,0.00052291,-0.00009693,0.00053410,0
 .00121250,-0.00065278,0.00085194,0.00042910,0.00069340,-0.00006489,-0.
 00004538,0.00004774,-0.00009451,-0.00023793,0.00046060,-0.00033883,-0.
 00015358,0.00009826,-0.00011459,0.00084307,0.00139073,0.00001351,0.000
 74420,-0.00084527,-0.00020812,-0.00004360,-0.00043327,0.00000407,-0.04
 779827,0.00647536,-0.00125534,0.05517977,-0.00004110,0.00002374,0.0000
 0575,-0.00008611,-0.00001075,-0.00009542,0.00012553,0.00001076,0.00010
 620,0.00009949,0.00002293,0.00007098,-0.00000949,-0.00004220,-0.000025
 91,-0.00002902,-0.00002145,0.00001668,-0.00001694,0.00001833,-0.000020
 33,-0.00001728,-0.00000495,-0.00004772,0.00030007,-0.00025947,0.000045
 70,0.00068650,0.00031890,-0.00005504,0.00016366,0.00000896,0.00023032,
 0.00015150,0.00017809,0.00012651,-0.00005867,-0.00001270,-0.00003937,0
 .00004738,-0.00001008,0.00002024,-0.00003477,0.00001239,-0.00003338,-0
 .00001156,0.00000162,0.00002106,0.00000689,0.00000369,0.00000785,0.000
 00238,0.00001368,-0.00000318,-0.00000717,-0.00002876,0.00002306,0.0000
 5550,-0.00004584,0.00001607,-0.00000378,0.00003394,-0.00000002,-0.0000
 2335,-0.00002718,-0.00003951,0.00000592,0.00003012,-0.00001342,-0.0000
 4378,-0.00000943,0.00005486,0.00004737,0.00002579,-0.00005727,0.000004
 62,0.00000075,0.00001020,-0.00001191,-0.00000251,0.00000512,-0.0000307
 0,0.00000780,0.00004087,0.00011896,-0.00020036,0.00000813,0.00006243,-
 0.00004186,-0.00009913,0.00003950,0.00011007,-0.00007572,0.00018211,-0
 .00008626,-0.00018818,0.00039881,0.00007078,-0.00027499,0.00014117,0.0
 0026535,-0.00019909,0.00004151,0.00001214,-0.00001797,-0.00003682,0.00
 001751,0.00000069,-0.00000055,-0.00000837,0.00008911,-0.00002307,-0.00
 000507,-0.00005698,0.00008618,-0.00005750,0.00009389,0.00008302,0.0001
 5450,0.00006512,0.00369465,-0.00083679,-0.00224664,0.00033848,-0.00002
 616,-0.00079748,0.00004134,-0.00007515,-0.00001739,0.00012319,0.000083
 98,-0.00014938,0.00000456,-0.00001916,0.00002659,-0.00002049,0.0000422
 0,0.00005787,-0.00001034,0.00000818,0.00002270,0.00000411,0.00001341,0
 .00000029,0.00001815,0.00001748,-0.00008353,-0.00003867,0.00001966,0.0
 0006416,-0.00003328,0.00000901,-0.00001639,-0.00007112,0.00005445,0.00
 000997,0.00003364,-0.00001622,0.00002462,0.00016222,-0.00023148,-0.000
 19866,0.00044326,0.00069287,-0.00007118,-0.00008533,-0.00073973,0.0002
 9999,0.00126266,-0.00027608,-0.00063985,-0.00004112,0.00002050,0.00008
 637,-0.00230290,0.00267022,0.00050750,-0.00702278,-0.01187882,0.003471
 85,-0.00014591,-0.01121304,0.00166800,0.00350042,-0.00649309,0.0024801
 2,-0.00167361,0.00216094,-0.00139569,0.00105636,0.00092560,-0.00102006
 ,-0.00057176,0.00161137,0.00092856,-0.00051996,-0.00078627,-0.00018871
 ,-0.00087334,0.00033711,-0.00076814,-0.00008753,0.00032683,0.00011896,
 0.00019897,-0.00047935,0.00020021,0.00006716,0.00042050,-0.00016247,-0
 .00089144,-0.00060585,0.00129090,0.00064051,-0.00132736,-0.00126387,0.
 00043293,0.00044587,-0.00026369,0.00135024,-0.32225188,-0.02401774,-0.
 00371410,0.35124733,-0.00001112,0.00000160,0.00002172,-0.00018661,0.00
 005338,-0.00007082,0.00007001,0.00010614,0.00012613,0.00004714,-0.0000
 0014,0.00003484,-0.00000134,-0.00000073,-0.00000701,-0.00001080,0.0000
 0798,-0.00000298,0.00002946,0.00000903,-0.00001533,0.00013414,-0.00004
 957,-0.00000067,0.00003895,-0.00006404,-0.00018916,0.00011938,-0.00033
 384,0.00003321,0.00038220,0.00033660,0.00023366,0.00005957,0.00009506,
 0.00002030,-0.00002539,-0.00002628,-0.00000611,0.00000003,-0.00000037,
 -0.00000536,-0.00000548,-0.00000025,0.00000018,0.00000384,0.00000878,-
 0.00000376,0.00000348,0.00000409,-0.00001039,0.00000163,-0.00000014,-0
 .00000107,-0.00000485,0.00000015,-0.00000440,-0.00009338,0.00001197,-0
 .00002654,-0.00006674,-0.00000380,0.00000331,-0.00000453,-0.00000290,-
 0.00001368,-0.00000401,0.00000605,-0.00000145,-0.00006494,0.00000143,0
 .00000876,0.00006488,-0.00000037,-0.00000542,-0.00000350,-0.00000052,-
 0.00000530,-0.00000444,-0.00000251,-0.00000169,-0.00000160,-0.00000106
 ,0.00000314,0.00014517,-0.00002549,0.00018582,0.00001691,-0.00001247,-
 0.00001076,-0.00003970,-0.00001630,0.00000423,0.00013709,0.00043070,-0
 .00028125,-0.00002792,-0.00009975,0.00005793,-0.00012535,-0.00023308,0
 .00018264,0.00000591,-0.00000791,-0.00001073,-0.00000348,0.00000267,0.
 00000120,-0.00000477,-0.00001108,0.00000195,-0.00000876,0.00000329,-0.
 00000694,-0.00000052,-0.00000900,-0.00001679,0.00007828,0.00004808,-0.
 00003891,-0.00171215,0.00127893,0.00008223,0.00036327,0.00011907,0.000
 19530,-0.00018292,-0.00001855,0.00012950,-0.00014333,-0.00005883,0.000
 14086,-0.00001334,0.00000392,0.00000521,-0.00000505,0.00000635,0.00000
 437,-0.00000415,0.00000353,-0.00000140,-0.00000362,0.00000142,-0.00001
 188,0.00008535,-0.00000665,-0.00000039,-0.00009842,0.00000155,-0.00000
 688,-0.00000489,-0.00001929,0.00000158,0.00000686,0.00000517,0.0000250
 6,0.00008055,-0.00001696,-0.00006183,-0.00065992,0.00027909,0.00023956
 ,0.00098016,0.00029854,0.00021230,0.00025952,0.00025451,0.00001902,-0.
 00413814,-0.00181599,-0.00040016,-0.00000739,0.00000562,0.00000534,0.0
 0040142,-0.00022545,0.00098938,0.00312735,0.00539390,0.00014040,0.0018
 4770,0.01659214,0.00309242,-0.00415664,0.00292387,-0.00197374,0.000926
 71,-0.00051177,-0.00009963,0.00045514,0.00001876,0.00055886,-0.0014274
 9,0.00045207,-0.00158451,0.00086402,-0.00045169,0.00068397,-0.00008376
 ,0.00095155,0.00019323,-0.00012269,0.00010074,-0.00013558,-0.00020052,
 0.00029086,-0.00006032,-0.00003544,0.00009472,-0.00003731,-0.00005118,
 -0.00171827,0.00124530,0.00011280,0.00181305,0.00048037,0.00000390,0.0
 0026345,0.00002818,-0.00060157,-0.02113380,-0.05264753,0.00188821,0.02
 529351,0.05541823,0.00003969,-0.00000656,0.00002779,-0.00031212,0.0001
 3517,-0.00009232,0.00089332,0.00018702,0.00064065,0.00023305,-0.000110
 15,0.00008735,-0.00003641,-0.00000449,-0.00000432,-0.00000094,-0.00001
 825,-0.00000687,0.00001373,0.00001377,-0.00001550,0.00016937,-0.000077
 17,-0.00005043,0.00054873,-0.00023509,0.00012215,-0.00057502,-0.000582
 45,0.00037449,0.00005464,0.00063937,0.00126069,-0.00007043,0.00005934,
 0.00010374,0.00005790,0.00011186,-0.00001863,-0.00001346,-0.00000654,-
 0.00000675,0.00001487,0.00000332,0.00000850,-0.00001214,0.00000274,-0.
 00000278,-0.00000803,-0.00001862,0.00000216,0.00001446,-0.00000473,-0.
 00000459,-0.00000411,-0.00000886,-0.00000592,0.00011192,-0.00009576,-0
 .00001537,-0.00006932,-0.00000663,0.00000355,0.00003192,0.00000893,0.0
 0000792,-0.00002378,-0.00001889,0.00001258,0.00001808,-0.00000411,0.00
 000197,-0.00000312,-0.00001987,0.00002590,0.00001687,0.00000531,-0.000
 00246,0.00000664,0.00000447,0.00000832,0.00002972,-0.00001193,-0.00000
 402,0.00053086,0.00045244,0.00025337,0.00005570,0.00004962,-0.00000212
 ,0.00019920,0.00015277,-0.00015780,-0.00006632,-0.00012313,0.00016646,
 -0.00022527,0.00025755,-0.00034839,-0.00000317,0.00007291,-0.00005480,
 -0.00001148,-0.00000910,0.00001011,0.00000725,0.00000238,0.00000539,0.
 00000974,0.00002921,-0.00002698,-0.00003507,-0.00002940,0.00001382,0.0
 0017986,0.00014668,0.00003209,0.00000052,0.00017901,-0.00000447,-0.004
 27613,-0.00282503,0.00019381,-0.00048172,0.00030026,0.00065402,0.00033
 036,-0.00002482,0.00026100,0.00004661,-0.00003062,-0.00004650,-0.00003
 947,0.00003786,-0.00003148,0.00000304,-0.00000247,-0.00003319,-0.00000
 068,0.00000238,-0.00001128,-0.00000309,-0.00000566,-0.00000496,-0.0000
 0360,-0.00000377,0.00001563,0.00000005,-0.00001291,-0.00003262,0.00000
 948,-0.00004174,0.00005883,0.00009631,-0.00007151,-0.00009217,-0.00009
 351,0.00012762,0.00012193,0.00009153,0.00001655,-0.00023636,0.00096676
 ,0.00038240,0.00039522,0.00014075,-0.00068458,-0.00014961,-0.00108881,
 -0.00145089,-0.00077465,0.00003960,-0.00001007,-0.00004416,-0.00309446
 ,0.00278949,0.00172693,-0.02041802,0.00255513,0.02887818,0.00286585,-0
 .00330941,-0.02239817,-0.00031117,0.00108613,-0.00255692,-0.00069635,0
 .00203679,-0.00045513,0.00073516,0.00035924,0.00056898,-0.00038456,0.0
 0044563,0.00090152,-0.00015107,-0.00068846,0.00006482,-0.00035381,-0.0
 0043424,0.00107932,-0.00029067,0.00037814,-0.00013571,-0.00077342,0.00
 043621,-0.00059842,0.00027552,-0.00005988,0.00009234,0.00007039,-0.000
 52923,-0.00062960,0.00263618,0.00068447,0.00023334,0.00074322,-0.00063
 730,0.00011364,-0.05209910,0.01311607,0.05359572,0.00340900,0.00236641
 ,0.00161080,0.07033199,-0.00000049,-0.00000031,-0.00002332,0.00008784,
 -0.00007106,-0.00000635,0.00007146,-0.00018588,0.00006798,0.00005419,-
 0.00003923,0.00001253,0.00001477,-0.00000876,-0.00000837,0.00000789,-0
 .00002025,-0.00000746,-0.00003335,0.00000131,0.00000196,-0.00004076,0.
 00002511,-0.00001048,-0.00009833,0.00004140,0.00006559,0.00012006,0.00
 041103,-0.00029427,0.00048249,-0.00022483,-0.00001977,-0.00004573,-0.0
 0010262,0.00008574,0.00005465,0.00007598,-0.00001677,-0.00002362,-0.00
 000751,0.00001483,0.00000661,-0.00001762,0.00000922,-0.00001253,0.0000
 0340,0.00001611,0.00001013,0.00000259,-0.00000513,-0.00000529,-0.00000
 522,-0.00000607,0.00001340,0.00000155,-0.00001289,0.00000898,0.0000342
 2,0.00000151,0.00002364,-0.00000502,0.00000420,0.00001406,0.00000502,-
 0.00000131,0.00001007,0.00001212,0.00000126,-0.00005959,0.00000302,0.0
 0006090,0.00005950,0.00000589,-0.00005640,0.00000157,0.00000274,-0.000
 00386,-0.00000329,-0.00000575,0.00000794,0.00000397,0.00000750,-0.0000
 0492,0.00036172,0.00008360,0.00026024,0.00005392,0.00007718,-0.0000324
 4,0.00023343,0.00014632,-0.00017133,0.00080233,0.00055462,-0.00008869,
 0.00019594,0.00000615,-0.00040243,0.00000902,0.00004169,-0.00008381,-0
 .00000565,0.00001094,0.00000952,0.00000234,0.00000633,0.00000744,-0.00
 000120,-0.00000473,-0.00000908,-0.00001297,-0.00000040,0.00003089,0.00
 014706,0.00009759,0.00003516,0.00037075,0.00012345,-0.00000141,0.00091
 635,0.00027873,-0.00018849,0.00014466,-0.00024288,0.00031207,0.0001481
 3,0.00000555,-0.00003930,-0.00002303,-0.00002084,-0.00000214,0.0000352
 0,0.00000485,-0.00002020,-0.00000118,0.00000281,0.00000105,-0.00000625
 ,0.00000761,0.00000779,-0.00000075,0.00001402,0.00000459,0.00007825,0.
 00001578,-0.00008082,-0.00007076,0.00000893,0.00008436,0.00001514,0.00
 002690,-0.00001980,-0.00002137,-0.00001258,-0.00001539,0.00003813,0.00
 002168,-0.00005155,0.00000348,0.00006940,0.00014570,-0.00082542,0.0002
 9946,0.00020463,0.00042464,0.00030626,-0.00043805,0.00492641,0.0002368
 0,-0.00001878,0.00003052,0.00002086,-0.00003386,-0.00279656,0.00143671
 ,0.00252864,-0.00596960,-0.00130016,0.00931291,-0.00537103,0.00498824,
 0.00751809,-0.00102119,0.00090240,0.00245316,-0.00100336,-0.00153372,-
 0.00089994,-0.00001398,-0.00038483,0.00041527,0.00029763,0.00004867,0.
 00060489,0.00046593,0.00048412,0.00068048,0.00007456,-0.00025916,-0.00
 084088,0.00103577,-0.00125620,0.00043839,0.00074826,-0.00023729,0.0007
 3996,0.00012431,-0.00039885,0.00058146,-0.00011216,0.00063884,0.004955
 84,-0.00068899,-0.00037507,-0.00420250,0.00084318,-0.00132592,-0.00181
 305,0.01505825,-0.06105158,-0.04958812,0.00705818,-0.00431822,-0.03069
 446,-0.01742035,0.06181714,-0.00001751,-0.00001442,-0.00000151,0.00003
 912,-0.00004006,-0.00002736,0.00020026,0.00006744,-0.00000654,-0.00006
 225,-0.00000753,0.00001110,0.00005185,0.00000292,-0.00002252,0.0000086
 9,0.00001847,0.00002011,-0.00001313,0.00000301,0.00001266,-0.00004511,
 -0.00002061,0.00004166,-0.00018478,0.00008615,-0.00008357,0.00076499,-
 0.00012881,0.00008654,0.00060378,-0.00002207,0.00010264,-0.00009186,-0
 .00003381,-0.00002900,0.00002535,-0.00001264,-0.00002777,-0.00001361,-
 0.00000286,0.00001225,-0.00001576,-0.00001099,0.00001187,0.00002210,0.
 00001130,0.00000519,0.00001478,0.00000609,0.00000700,-0.00002734,-0.00
 001028,-0.00000200,0.00001807,0.00001815,0.00000391,-0.00010376,0.0000
 9139,-0.00007505,0.00004537,0.00000358,0.00001299,-0.00001201,-0.00001
 311,-0.00001396,0.00003645,0.00000122,0.00000177,-0.00003195,0.0000171
 3,0.00001449,0.00003405,0.00000473,0.00000993,-0.00003240,-0.00000361,
 0.00000619,-0.00000070,-0.00001859,0.00000392,0.00000035,-0.00000515,0
 .00001225,-0.00086489,-0.00031952,-0.00057604,-0.00007952,-0.00000722,
 0.00004619,-0.00027163,-0.00014350,0.00013341,-0.00112920,-0.00059372,
 0.00026890,-0.00038229,-0.00041282,0.00059684,-0.00004087,-0.00003721,
 0.00010038,0.00002969,0.00003493,0.00001308,0.00001037,-0.00000652,0.0
 0001475,-0.00001574,-0.00004932,0.00000272,0.00001659,0.00003945,0.000
 01349,-0.00011872,-0.00004279,-0.00001872,-0.00020419,-0.00004211,-0.0
 0005117,-0.00001687,0.00140614,0.00063986,-0.00030594,-0.00012319,0.00
 045758,-0.00017444,0.00005055,-0.00000097,-0.00007413,0.00001739,0.000
 07502,0.00001671,0.00000229,-0.00003169,0.00002232,0.00000618,0.000012
 84,0.00000461,0.00000787,0.00001557,0.00001848,0.00001298,0.00001325,0
 .00005937,-0.00000253,0.00001996,-0.00002984,0.00003009,0.00002189,0.0
 0002149,0.00001169,-0.00004931,-0.00002180,0.00001127,0.00006160,0.000
 03356,-0.00005148,-0.00005789,0.00000563,-0.00005018,0.00005167,-0.000
 14349,-0.00010324,-0.00041073,-0.00031529,-0.00017116,0.00033807,-0.00
 262470,0.00010574,0.00110242,-0.00003838,-0.00003567,-0.00001342,0.002
 81974,-0.00251146,-0.00197772,0.00770077,0.00111584,-0.00953488,0.0014
 9572,-0.00389818,-0.01985705,-0.00240797,0.00044878,-0.00379002,0.0007
 7711,0.00301295,-0.00092810,-0.00109642,-0.00136726,-0.00078226,0.0001
 4326,0.00038860,0.00138277,0.00013015,-0.00044498,-0.00028449,0.000341
 83,-0.00127010,0.00138235,-0.00065650,0.00076271,-0.00019998,-0.001192
 74,0.00076481,-0.00145749,0.00003957,0.00034729,-0.00022431,0.00071704
 ,-0.00072479,0.00075193,0.00023349,0.00420250,0.00436224,-0.00020669,0
 .00126531,0.00048071,0.06064710,-0.05718803,-0.27252115,0.00059422,-0.
 00296705,-0.00705204,-0.06467962,0.05853163,0.30737272\\0.00000195,0.0
 0000035,0.00000004,0.00000138,0.00000299,0.00000006,0.00000252,0.00000
 218,-0.00000129,0.00000032,-0.00000025,0.00000105,-0.00000105,-0.00000
 022,-0.00000021,-0.00000317,-0.00000041,0.00000019,0.00000083,0.000000
 58,-0.00000082,0.00000018,0.00000007,0.00000082,-0.00000126,0.00000197
 ,-0.00000429,-0.00000587,0.00000034,-0.00000685,-0.00002379,0.00000747
 ,-0.00000328,0.00000224,-0.00000246,-0.00000113,0.00000119,-0.00000344
 ,0.00000036,0.00000182,-0.00000055,0.00000043,-0.00000093,0.00000017,0
 .00000052,0.00000440,-0.00000103,-0.00000027,-0.00000203,0.00000097,-0
 .00000383,-0.00000061,0.00000141,0.00000078,-0.00000104,-0.00000055,0.
 00000016,-0.00000005,-0.00000014,-0.00000129,0.00000091,0.00000088,0.,
 -0.00000094,-0.00000031,-0.00000016,-0.00000005,0.00000150,-0.00000087
 ,-0.00002270,0.00000089,-0.00000103,0.00002287,-0.00000041,0.00000107,
 -0.00000015,-0.00000116,0.00000104,-0.00000117,0.00000072,0.00000062,0
 .00000055,-0.00000047,-0.00000027,0.00001897,-0.00000870,0.00000009,0.
 00000005,-0.00000273,0.00000534,-0.00000083,0.00000135,0.00000577,0.00
 000252,0.00000412,0.00000202,-0.00000118,-0.00000329,0.00000304,0.0000
 0387,-0.00000243,-0.00000096,0.00000173,-0.00000029,-0.00000089,0.0000
 0062,-0.00000044,0.00000053,-0.00000029,0.00000022,-0.00000070,-0.0000
 0020,-0.00000014,0.00000140,-0.00000121,-0.00000246,-0.00000397,-0.000
 00443,-0.00000110,-0.00000713,0.00000710,-0.00000311,0.00000299,-0.000
 00708,0.00000356,-0.00000124,0.00000131,0.00000267,-0.00000138,0.00000
 091,0.00000064,-0.00000194,-0.00000083,0.00000025,0.00000089,-0.000002
 20,0.00000080,0.00000075,-0.00000112,0.00000077,0.00000026,-0.00000176
 ,-0.00000085,-0.00000059,0.00003413,-0.00000058,0.00000281,-0.00003048
 ,0.00000131,0.00000016,-0.00000197,0.00000004,0.00000035,0.00000199,0.
 00000084,-0.00000126,0.00000116,0.00000312,-0.00000003,0.00000050,0.00
 000174,0.00000436,-0.00000166,-0.00000198,0.00000613,0.00000286,0.0000
 0228,-0.00000080,0.00000271,-0.00000111,0.00000089,0.00000102,-0.00000
 281,0.00000072,-0.00000355,-0.00000343,0.00000230,0.00000001,0.0000032
 7,0.00000493,-0.00003768,0.00000977,0.00003857,0.00004777,-0.00000817,
 -0.00002731,0.00000039,0.00001083,0.00000710,-0.00000841,0.00001890,-0
 .00000957,0.00000420,-0.00001179,-0.00001484,-0.00000706,0.00001251,0.
 00000882,0.00000116,-0.00001157,0.00000662,-0.00000877,-0.00001846,-0.
 00000852,-0.00000708,-0.00001366,0.00000938,0.00000314,0.00001127,-0.0
 0001533,0.00000841,-0.00000224,-0.00000179,-0.00000801,-0.00000601,-0.
 00000690,0.00000995,-0.00001224,0.00000736,0.00000293,-0.00000044,0.00
 000016,0.00000697,0.00001364,0.00000552,-0.00000695,0.00000506,-0.0000
 0565\\\@


 LORD, MAN... WERE YE BUT WHYLES WHERE I AM, 
 THE GENTILES YE WAD NE'ER ENVY 'EM.        
 IT'S TRUE, THEY NEEDNA STARVE OR SWEAT,     
 THRO' WINTER'S CAULD OR SIMMER'S HEAT...  
 THEY'VE NAE SAIR WARK TO CRAZE THEIR BANES, 
 AND FILL AULD AGE WITH GRIPS AN' GRANES...  
                                             
 BUT HUMAN BODIES ARE SIC FOOLS              
 FOR A' THEIR COLLEGES AND SCHOOLS,           
 THAT WHEN NAE REAL ILLS PERPLEX THEM,       
 THEY MAK ENOW THEMSELVES TO VEX THEM,       
 AN' AYE THE LESS THEY HAE TO STURT THEM,    
 IN LIKE PROPORTION LESS WILL HURT THEM....  
                                             
                (ROBERT BURNS 'THE TWA DOGS')
 Job cpu time:       0 days  0 hours  0 minutes  0.6 seconds.
 Elapsed time:       0 days  0 hours  1 minutes 42.6 seconds.
 File lengths (MBytes):  RWF=     22 Int=      0 D2E=      0 Chk=      3 Scr=      2
 Normal termination of Gaussian 16 at Tue May 27 10:50:06 2025.
