 Entering Gaussian System, Link 0=/mlatom/software/Gaussian/g16-avx2/g16
 Input=gaussian.com
 Output=gaussian.log
 Initial command:
 /mlatom/software/Gaussian/g16-avx2/l1.exe "/mlatom/home/huangyh/projects/delta_learning/paper/revision1/Starting_from_ub3lyp_d4/c60/xtb/r/Gau-71741.inp" -scrdir="/mlatom/home/huangyh/projects/delta_learning/paper/revision1/Starting_from_ub3lyp_d4/c60/xtb/r/"
 Entering Link 1 = /mlatom/software/Gaussian/g16-avx2/l1.exe PID=     71742.
  
 Copyright (c) 1988,1990,1992,1993,1995,1998,2003,2009,2016,
            Gaussian, Inc.  All Rights Reserved.
  
 This is part of the Gaussian(R) 16 program.  It is based on
 the Gaussian(R) 09 system (copyright 2009, Gaussian, Inc.),
 the Gaussian(R) 03 system (copyright 2003, Gaussian, Inc.),
 the Gaussian(R) 98 system (copyright 1998, Gaussian, Inc.),
 the Gaussian(R) 94 system (copyright 1995, Gaussian, Inc.),
 the Gaussian 92(TM) system (copyright 1992, Gaussian, Inc.),
 the Gaussian 90(TM) system (copyright 1990, Gaussian, Inc.),
 the Gaussian 88(TM) system (copyright 1988, Gaussian, Inc.),
 the Gaussian 86(TM) system (copyright 1986, Carnegie Mellon
 University), and the Gaussian 82(TM) system (copyright 1983,
 Carnegie Mellon University). Gaussian is a federally registered
 trademark of Gaussian, Inc.
  
 This software contains proprietary and confidential information,
 including trade secrets, belonging to Gaussian, Inc.
  
 This software is provided under written license and may be
 used, copied, transmitted, or stored only in accord with that
 written license.
  
 The following legend is applicable only to US Government
 contracts under FAR:
  
                    RESTRICTED RIGHTS LEGEND
  
 Use, reproduction and disclosure by the US Government is
 subject to restrictions as set forth in subparagraphs (a)
 and (c) of the Commercial Computer Software - Restricted
 Rights clause in FAR 52.227-19.
  
 Gaussian, Inc.
 340 Quinnipiac St., Bldg. 40, Wallingford CT 06492
  
  
 ---------------------------------------------------------------
 Warning -- This program may not be used in any manner that
 competes with the business of Gaussian, Inc. or will provide
 assistance to any competitor of Gaussian, Inc.  The licensee
 of this program is prohibited from giving any competitor of
 Gaussian, Inc. access to this program.  By using this program,
 the user acknowledges that Gaussian, Inc. is engaged in the
 business of creating and licensing software in the field of
 computational chemistry and represents and warrants to the
 licensee that it is not a competitor of Gaussian, Inc. and that
 it will not use this program in any manner prohibited above.
 ---------------------------------------------------------------
  

 Cite this work as:
 Gaussian 16, Revision A.03,
 M. J. Frisch, G. W. Trucks, H. B. Schlegel, G. E. Scuseria, 
 M. A. Robb, J. R. Cheeseman, G. Scalmani, V. Barone, 
 G. A. Petersson, H. Nakatsuji, X. Li, M. Caricato, A. V. Marenich, 
 J. Bloino, B. G. Janesko, R. Gomperts, B. Mennucci, H. P. Hratchian, 
 J. V. Ortiz, A. F. Izmaylov, J. L. Sonnenberg, D. Williams-Young, 
 F. Ding, F. Lipparini, F. Egidi, J. Goings, B. Peng, A. Petrone, 
 T. Henderson, D. Ranasinghe, V. G. Zakrzewski, J. Gao, N. Rega, 
 G. Zheng, W. Liang, M. Hada, M. Ehara, K. Toyota, R. Fukuda, 
 J. Hasegawa, M. Ishida, T. Nakajima, Y. Honda, O. Kitao, H. Nakai, 
 T. Vreven, K. Throssell, J. A. Montgomery, Jr., J. E. Peralta, 
 F. Ogliaro, M. J. Bearpark, J. J. Heyd, E. N. Brothers, K. N. Kudin, 
 V. N. Staroverov, T. A. Keith, R. Kobayashi, J. Normand, 
 K. Raghavachari, A. P. Rendell, J. C. Burant, S. S. Iyengar, 
 J. Tomasi, M. Cossi, J. M. Millam, M. Klene, C. Adamo, R. Cammi, 
 J. W. Ochterski, R. L. Martin, K. Morokuma, O. Farkas, 
 J. B. Foresman, and D. J. Fox, Gaussian, Inc., Wallingford CT, 2016.
 
 ******************************************
 Gaussian 16:  ES64L-G16RevA.03 25-Dec-2016
                27-May-2025 
 ******************************************
 %nproc=1
 Will use up to    1 processors via shared memory.
 ----------------------------------------------------------------------
 #p Freq external='/mlatom/software/miniconda3/bin/python /mlatom/softw
 are/mlatom_xacs/mlatom/interfaces/gaussian_interface.py model_predict_
 kwargs'
 ----------------------------------------------------------------------
 1/10=4,18=10,30=1,38=1/1,3;
 2/12=2,17=6,18=5,40=1/2;
 3/11=9,25=1,30=1,41=9900000,43=2,71=2,140=1/1;
 4/20=17,22=2,24=3,113=1,114=1/2;
 6/7=2,8=2,9=2,10=2/1;
 7/8=1,25=1,44=-1/16;
 1/10=4,18=10,30=1/3;
 99//99;
 Leave Link    1 at Tue May 27 14:40:43 2025, MaxMem=           0 cpu:               0.1 elap:               0.1
 (Enter /mlatom/software/Gaussian/g16-avx2/l101.exe)
 ------------------------------------
 d3608b6a-4c6e-4716-a2d8-500990fcc375
 ------------------------------------
 Symbolic Z-matrix:
 Charge =  0 Multiplicity = 1
 C                    -1.96326   2.28866  -2.36534 
 C                    -0.55414   2.28905  -2.66771 
 C                     0.03548   1.1654   -3.2313 
 C                    -0.76273  -0.00075  -3.51512 
 C                    -2.12003  -0.00075  -3.22478 
 C                    -2.73172   1.16553  -2.63875 
 C                    -2.15448   3.0097   -1.13175 
 C                    -0.86326   3.45525  -0.67169 
 C                     0.12566   3.00887  -1.62115 
 C                     1.36843   2.57772  -1.17771 
 C                     1.32687   0.72089  -2.77229 
 C                     0.03557  -1.16672  -3.2308 
 C                    -0.55395  -2.29017  -2.66672 
 C                    -1.96307  -2.28978  -2.36436 
 C                    -2.73162  -1.16683  -2.63825 
 C                    -3.72057  -0.72129  -1.68911 
 C                    -3.72063   0.72032  -1.68942 
 C                    -3.90474   1.41455  -0.50164 
 C                    -3.10687   2.58091  -0.21755 
 C                    -0.57226   3.45587   0.68527 
 C                    -1.561     3.01056   1.63474 
 C                    -2.80444   2.58124   1.19188 
 C                    -3.41534   1.41503   1.77877 
 C                    -4.09547   0.69404   0.73219 
 C                    -4.09541  -0.69401   0.73249 
 C                    -3.90462  -1.41502  -0.50103 
 C                    -3.10665  -2.5812   -0.21644 
 C                    -2.15424  -3.0103   -1.13045 
 C                     1.32693  -0.7219   -2.77198 
 C                     0.71936  -3.00911   1.14686 
 C                     1.67062  -2.57745   0.23233 
 C                     2.46805  -1.4123    0.51458 
 C                     2.28673  -0.72123   1.70311 
 C                     1.29788  -1.16549   2.65196 
 C                    -0.88018  -2.28877   2.68248 
 C                    -1.56075  -3.00992   1.63603 
 C                    -0.57197  -3.45556   0.68676 
 C                    -0.86298  -3.45555  -0.6702 
 C                     0.12591  -3.00949  -1.61986 
 C                     1.36863  -2.57804  -1.17661 
 C                     2.46794   1.41279   0.51397 
 C                     2.28668   0.72222   1.7028 
 C                     1.29778   1.1668    2.65146 
 C                     0.68642   0.00076   3.23831 
 C                    -0.67045   0.00076   3.5304 
 C                    -1.46869  -1.16555   3.24701 
 C                    -2.80423  -2.5809    1.19299 
 C                    -3.41523  -1.41449   1.77938 
 C                    -2.75999  -0.72027   2.78707 
 C                    -2.76004   0.7213    2.78676 
 C                    -1.46879   1.16689   3.24651 
 C                    -0.88037   2.28991   2.6815 
 C                     0.52868   2.29051   2.37902 
 C                     0.71911   3.00973   1.14556 
 C                     1.67041   2.57776   0.23122 
 C                     1.98111  -1.41317  -1.76259 
 C                     1.98101   1.41265  -1.7632 
 C                     0.52888  -2.28938   2.38001 
 C                     2.67608  -0.69641  -0.72086 
 C                     2.67601   0.69638  -0.72115 
 C                     5.59713   0.73295  -0.19162 
 C                     5.59698  -0.73299  -0.19172 
 C                     5.95237   1.42919   1.08951 
 H                     5.91137   2.50757   0.95922 
 H                     5.25798   1.15416   1.88229 
 H                     6.95641   1.15948   1.41254 
 C                     5.95197  -1.42947   1.08936 
 H                     5.91026  -2.50782   0.95907 
 H                     6.95625  -1.16041   1.4122 
 H                     5.25792  -1.15395   1.88225 
 C                     5.23331  -1.45834  -1.25394 
 H                     4.99319  -1.02954  -2.20943 
 H                     5.2095   -2.53433  -1.20905 
 C                     5.23349   1.45852  -1.25371 
 H                     5.20989   2.5345   -1.20867 
 H                     4.99314   1.02989  -2.20922 
 
 ITRead=  0  0  0  0  0  0  0  0  0  0  0  0  0  0  0  0  0  0  0  0
 ITRead=  0  0  0  0  0  0  0  0  0  0  0  0  0  0  0  0  0  0  0  0
 ITRead=  0  0  0  0  0  0  0  0  0  0  0  0  0  0  0  0  0  0  0  0
 ITRead=  0  0  0  0  0  0  0  0  0  0  0  0  0  0  0  0
 MicOpt= -1 -1 -1 -1 -1 -1 -1 -1 -1 -1 -1 -1 -1 -1 -1 -1 -1 -1 -1 -1
 MicOpt= -1 -1 -1 -1 -1 -1 -1 -1 -1 -1 -1 -1 -1 -1 -1 -1 -1 -1 -1 -1
 MicOpt= -1 -1 -1 -1 -1 -1 -1 -1 -1 -1 -1 -1 -1 -1 -1 -1 -1 -1 -1 -1
 MicOpt= -1 -1 -1 -1 -1 -1 -1 -1 -1 -1 -1 -1 -1 -1 -1 -1
 NAtoms=     76 NQM=       76 NQMF=       0 NMMI=      0 NMMIF=      0
                NMic=       0 NMicF=      0.
                    Isotopes and Nuclear Properties:
 (Nuclear quadrupole moments (NQMom) in fm**2, nuclear magnetic moments (NMagM)
  in nuclear magnetons)

  Atom         1           2           3           4           5           6           7           8           9          10
 IAtWgt=          12          12          12          12          12          12          12          12          12          12
 AtmWgt=  12.0000000  12.0000000  12.0000000  12.0000000  12.0000000  12.0000000  12.0000000  12.0000000  12.0000000  12.0000000
 NucSpn=           0           0           0           0           0           0           0           0           0           0
 AtZEff=  -0.0000000  -0.0000000  -0.0000000  -0.0000000  -0.0000000  -0.0000000  -0.0000000  -0.0000000  -0.0000000  -0.0000000
 NQMom=    0.0000000   0.0000000   0.0000000   0.0000000   0.0000000   0.0000000   0.0000000   0.0000000   0.0000000   0.0000000
 NMagM=    0.0000000   0.0000000   0.0000000   0.0000000   0.0000000   0.0000000   0.0000000   0.0000000   0.0000000   0.0000000
 AtZNuc=   6.0000000   6.0000000   6.0000000   6.0000000   6.0000000   6.0000000   6.0000000   6.0000000   6.0000000   6.0000000

  Atom        11          12          13          14          15          16          17          18          19          20
 IAtWgt=          12          12          12          12          12          12          12          12          12          12
 AtmWgt=  12.0000000  12.0000000  12.0000000  12.0000000  12.0000000  12.0000000  12.0000000  12.0000000  12.0000000  12.0000000
 NucSpn=           0           0           0           0           0           0           0           0           0           0
 AtZEff=  -0.0000000  -0.0000000  -0.0000000  -0.0000000  -0.0000000  -0.0000000  -0.0000000  -0.0000000  -0.0000000  -0.0000000
 NQMom=    0.0000000   0.0000000   0.0000000   0.0000000   0.0000000   0.0000000   0.0000000   0.0000000   0.0000000   0.0000000
 NMagM=    0.0000000   0.0000000   0.0000000   0.0000000   0.0000000   0.0000000   0.0000000   0.0000000   0.0000000   0.0000000
 AtZNuc=   6.0000000   6.0000000   6.0000000   6.0000000   6.0000000   6.0000000   6.0000000   6.0000000   6.0000000   6.0000000

  Atom        21          22          23          24          25          26          27          28          29          30
 IAtWgt=          12          12          12          12          12          12          12          12          12          12
 AtmWgt=  12.0000000  12.0000000  12.0000000  12.0000000  12.0000000  12.0000000  12.0000000  12.0000000  12.0000000  12.0000000
 NucSpn=           0           0           0           0           0           0           0           0           0           0
 AtZEff=  -0.0000000  -0.0000000  -0.0000000  -0.0000000  -0.0000000  -0.0000000  -0.0000000  -0.0000000  -0.0000000  -0.0000000
 NQMom=    0.0000000   0.0000000   0.0000000   0.0000000   0.0000000   0.0000000   0.0000000   0.0000000   0.0000000   0.0000000
 NMagM=    0.0000000   0.0000000   0.0000000   0.0000000   0.0000000   0.0000000   0.0000000   0.0000000   0.0000000   0.0000000
 AtZNuc=   6.0000000   6.0000000   6.0000000   6.0000000   6.0000000   6.0000000   6.0000000   6.0000000   6.0000000   6.0000000

  Atom        31          32          33          34          35          36          37          38          39          40
 IAtWgt=          12          12          12          12          12          12          12          12          12          12
 AtmWgt=  12.0000000  12.0000000  12.0000000  12.0000000  12.0000000  12.0000000  12.0000000  12.0000000  12.0000000  12.0000000
 NucSpn=           0           0           0           0           0           0           0           0           0           0
 AtZEff=  -0.0000000  -0.0000000  -0.0000000  -0.0000000  -0.0000000  -0.0000000  -0.0000000  -0.0000000  -0.0000000  -0.0000000
 NQMom=    0.0000000   0.0000000   0.0000000   0.0000000   0.0000000   0.0000000   0.0000000   0.0000000   0.0000000   0.0000000
 NMagM=    0.0000000   0.0000000   0.0000000   0.0000000   0.0000000   0.0000000   0.0000000   0.0000000   0.0000000   0.0000000
 AtZNuc=   6.0000000   6.0000000   6.0000000   6.0000000   6.0000000   6.0000000   6.0000000   6.0000000   6.0000000   6.0000000

  Atom        41          42          43          44          45          46          47          48          49          50
 IAtWgt=          12          12          12          12          12          12          12          12          12          12
 AtmWgt=  12.0000000  12.0000000  12.0000000  12.0000000  12.0000000  12.0000000  12.0000000  12.0000000  12.0000000  12.0000000
 NucSpn=           0           0           0           0           0           0           0           0           0           0
 AtZEff=  -0.0000000  -0.0000000  -0.0000000  -0.0000000  -0.0000000  -0.0000000  -0.0000000  -0.0000000  -0.0000000  -0.0000000
 NQMom=    0.0000000   0.0000000   0.0000000   0.0000000   0.0000000   0.0000000   0.0000000   0.0000000   0.0000000   0.0000000
 NMagM=    0.0000000   0.0000000   0.0000000   0.0000000   0.0000000   0.0000000   0.0000000   0.0000000   0.0000000   0.0000000
 AtZNuc=   6.0000000   6.0000000   6.0000000   6.0000000   6.0000000   6.0000000   6.0000000   6.0000000   6.0000000   6.0000000

  Atom        51          52          53          54          55          56          57          58          59          60
 IAtWgt=          12          12          12          12          12          12          12          12          12          12
 AtmWgt=  12.0000000  12.0000000  12.0000000  12.0000000  12.0000000  12.0000000  12.0000000  12.0000000  12.0000000  12.0000000
 NucSpn=           0           0           0           0           0           0           0           0           0           0
 AtZEff=  -0.0000000  -0.0000000  -0.0000000  -0.0000000  -0.0000000  -0.0000000  -0.0000000  -0.0000000  -0.0000000  -0.0000000
 NQMom=    0.0000000   0.0000000   0.0000000   0.0000000   0.0000000   0.0000000   0.0000000   0.0000000   0.0000000   0.0000000
 NMagM=    0.0000000   0.0000000   0.0000000   0.0000000   0.0000000   0.0000000   0.0000000   0.0000000   0.0000000   0.0000000
 AtZNuc=   6.0000000   6.0000000   6.0000000   6.0000000   6.0000000   6.0000000   6.0000000   6.0000000   6.0000000   6.0000000

  Atom        61          62          63          64          65          66          67          68          69          70
 IAtWgt=          12          12          12           1           1           1          12           1           1           1
 AtmWgt=  12.0000000  12.0000000  12.0000000   1.0078250   1.0078250   1.0078250  12.0000000   1.0078250   1.0078250   1.0078250
 NucSpn=           0           0           0           1           1           1           0           1           1           1
 AtZEff=  -0.0000000  -0.0000000  -0.0000000  -0.0000000  -0.0000000  -0.0000000  -0.0000000  -0.0000000  -0.0000000  -0.0000000
 NQMom=    0.0000000   0.0000000   0.0000000   0.0000000   0.0000000   0.0000000   0.0000000   0.0000000   0.0000000   0.0000000
 NMagM=    0.0000000   0.0000000   0.0000000   2.7928460   2.7928460   2.7928460   0.0000000   2.7928460   2.7928460   2.7928460
 AtZNuc=   6.0000000   6.0000000   6.0000000   1.0000000   1.0000000   1.0000000   6.0000000   1.0000000   1.0000000   1.0000000

  Atom        71          72          73          74          75          76
 IAtWgt=          12           1           1          12           1           1
 AtmWgt=  12.0000000   1.0078250   1.0078250  12.0000000   1.0078250   1.0078250
 NucSpn=           0           1           1           0           1           1
 AtZEff=  -0.0000000  -0.0000000  -0.0000000  -0.0000000  -0.0000000  -0.0000000
 NQMom=    0.0000000   0.0000000   0.0000000   0.0000000   0.0000000   0.0000000
 NMagM=    0.0000000   2.7928460   2.7928460   0.0000000   2.7928460   2.7928460
 AtZNuc=   6.0000000   1.0000000   1.0000000   6.0000000   1.0000000   1.0000000
 Leave Link  101 at Tue May 27 14:40:44 2025, MaxMem=   104857600 cpu:               0.3 elap:               0.3
 (Enter /mlatom/software/Gaussian/g16-avx2/l103.exe)

 GradGradGradGradGradGradGradGradGradGradGradGradGradGradGradGradGradGrad
 Berny optimization.
 Initialization pass.
 Trust Radius=3.00D-01 FncErr=1.00D-07 GrdErr=1.00D-07 EigMax=2.50D+02 EigMin=1.00D-04
 Number of steps in this run=      2 maximum allowed number of steps=      2.
 GradGradGradGradGradGradGradGradGradGradGradGradGradGradGradGradGradGrad

 Leave Link  103 at Tue May 27 14:40:44 2025, MaxMem=   104857600 cpu:               0.1 elap:               0.1
 (Enter /mlatom/software/Gaussian/g16-avx2/l202.exe)
 Stoichiometry    C66H10
 Framework group  C1[X(C66H10)]
 Deg. of freedom   222
 Full point group                 C1      NOp   1
 Largest Abelian subgroup         C1      NOp   1
 Largest concise Abelian subgroup C1      NOp   1
                         Standard orientation:                         
 ---------------------------------------------------------------------
 Center     Atomic      Atomic             Coordinates (Angstroms)
 Number     Number       Type             X           Y           Z
 ---------------------------------------------------------------------
      1          6           0       -1.963257    2.288661   -2.365344
      2          6           0       -0.554142    2.289046   -2.667707
      3          6           0        0.035479    1.165397   -3.231302
      4          6           0       -0.762730   -0.000754   -3.515124
      5          6           0       -2.120026   -0.000749   -3.224781
      6          6           0       -2.731719    1.165534   -2.638754
      7          6           0       -2.154484    3.009700   -1.131747
      8          6           0       -0.863264    3.455250   -0.671690
      9          6           0        0.125665    3.008869   -1.621152
     10          6           0        1.368429    2.577716   -1.177715
     11          6           0        1.326875    0.720889   -2.772293
     12          6           0        0.035572   -1.166717   -3.230801
     13          6           0       -0.553955   -2.290173   -2.666723
     14          6           0       -1.963069   -2.289778   -2.364360
     15          6           0       -2.731622   -1.166831   -2.638252
     16          6           0       -3.720568   -0.721290   -1.689114
     17          6           0       -3.720628    0.720318   -1.689424
     18          6           0       -3.904739    1.414548   -0.501640
     19          6           0       -3.106866    2.580911   -0.217553
     20          6           0       -0.572259    3.455872    0.685271
     21          6           0       -1.560996    3.010560    1.634736
     22          6           0       -2.804437    2.581240    1.191879
     23          6           0       -3.415335    1.415029    1.778772
     24          6           0       -4.095465    0.694043    0.732188
     25          6           0       -4.095411   -0.694006    0.732487
     26          6           0       -3.904619   -1.415024   -0.501032
     27          6           0       -3.106653   -2.581200   -0.216442
     28          6           0       -2.154236   -3.010303   -1.130452
     29          6           0        1.326930   -0.721903   -2.771984
     30          6           0        0.719362   -3.009114    1.146855
     31          6           0        1.670624   -2.577450    0.232333
     32          6           0        2.468055   -1.412298    0.514578
     33          6           0        2.286733   -0.721226    1.703108
     34          6           0        1.297877   -1.165491    2.651962
     35          6           0       -0.880176   -2.288767    2.682481
     36          6           0       -1.560748   -3.009924    1.636032
     37          6           0       -0.571974   -3.455561    0.686757
     38          6           0       -0.862980   -3.455548   -0.670204
     39          6           0        0.125910   -3.009492   -1.619859
     40          6           0        1.368635   -2.578041   -1.176606
     41          6           0        2.467938    1.412789    0.513975
     42          6           0        2.286676    0.722220    1.702805
     43          6           0        1.297779    1.166804    2.651462
     44          6           0        0.686420    0.000756    3.238313
     45          6           0       -0.670453    0.000762    3.530402
     46          6           0       -1.468693   -1.165552    3.247009
     47          6           0       -2.804227   -2.580899    1.192991
     48          6           0       -3.415231   -1.414489    1.779385
     49          6           0       -2.759985   -0.720272    2.787074
     50          6           0       -2.760042    0.721300    2.786765
     51          6           0       -1.468788    1.166887    3.246508
     52          6           0       -0.880367    2.289908    2.681495
     53          6           0        0.528684    2.290510    2.379024
     54          6           0        0.719113    3.009731    1.145561
     55          6           0        1.670413    2.577755    0.231224
     56          6           0        1.981112   -1.413171   -1.762593
     57          6           0        1.981011    1.412645   -1.763200
     58          6           0        0.528876   -2.289379    2.380009
     59          6           0        2.676076   -0.696408   -0.720860
     60          6           0        2.676015    0.696383   -0.721151
     61          6           0        5.597128    0.732948   -0.191617
     62          6           0        5.596978   -0.732991   -0.191715
     63          6           0        5.952373    1.429194    1.089512
     64          1           0        5.911370    2.507569    0.959221
     65          1           0        5.257984    1.154156    1.882294
     66          1           0        6.956405    1.159476    1.412536
     67          6           0        5.951973   -1.429472    1.089356
     68          1           0        5.910256   -2.507820    0.959072
     69          1           0        6.956245   -1.160411    1.412195
     70          1           0        5.257916   -1.153950    1.882251
     71          6           0        5.233307   -1.458343   -1.253944
     72          1           0        4.993190   -1.029539   -2.209428
     73          1           0        5.209502   -2.534329   -1.209054
     74          6           0        5.233487    1.458518   -1.253709
     75          1           0        5.209888    2.534502   -1.208666
     76          1           0        4.993135    1.029894   -2.209219
 ---------------------------------------------------------------------
 Rotational constants (GHZ):           0.0815247           0.0560937           0.0557614
 Leave Link  202 at Tue May 27 14:40:44 2025, MaxMem=   104857600 cpu:               0.1 elap:               0.1
 (Enter /mlatom/software/Gaussian/g16-avx2/l301.exe)
 Standard basis: STO-3G (5D, 7F)
 Ernie: Thresh=  0.10000D-02 Tol=  0.10000D-05 Strict=F.
 There are   340 symmetry adapted cartesian basis functions of A   symmetry.
 There are   340 symmetry adapted basis functions of A   symmetry.
   340 basis functions,  1020 primitive gaussians,   340 cartesian basis functions
   203 alpha electrons      203 beta electrons
       nuclear repulsion energy      9951.3761529510 Hartrees.
 IExCor=    0 DFT=F Ex=HF Corr=None ExCW=0 ScaHFX=  1.000000
 ScaDFX=  1.000000  1.000000  1.000000  1.000000 ScalE2=  1.000000  1.000000
 IRadAn=      5 IRanWt=     -1 IRanGd=            0 ICorTp=0 IEmpDi=  4
 NAtoms=   76 NActive=   76 NUniq=   76 SFac= 1.00D+00 NAtFMM=   60 NAOKFM=T Big=T
 Integral buffers will be    131072 words long.
 Raffenetti 1 integral format.
 Two-electron integral symmetry is turned on.
 Leave Link  301 at Tue May 27 14:40:44 2025, MaxMem=   104857600 cpu:               0.1 elap:               0.2
 (Enter /mlatom/software/Gaussian/g16-avx2/l402.exe)
 External calculation of energy, first and second derivatives.
 Running external command "/mlatom/software/miniconda3/bin/python /mlatom/software/mlatom_xacs/mlatom/interfaces/gaussian_interface.py model_predict_kwargs R"
         input file       "/mlatom/home/huangyh/projects/delta_learning/paper/revision1/Starting_from_ub3lyp_d4/c60/xtb/r/Gau-71742.EIn"
         output file      "/mlatom/home/huangyh/projects/delta_learning/paper/revision1/Starting_from_ub3lyp_d4/c60/xtb/r/Gau-71742.EOu"
         message file     "/mlatom/home/huangyh/projects/delta_learning/paper/revision1/Starting_from_ub3lyp_d4/c60/xtb/r/Gau-71742.EMs"
         fchk file        "/mlatom/home/huangyh/projects/delta_learning/paper/revision1/Starting_from_ub3lyp_d4/c60/xtb/r/Gau-71742.EFC"
         mat. el file     "/mlatom/home/huangyh/projects/delta_learning/paper/revision1/Starting_from_ub3lyp_d4/c60/xtb/r/Gau-71742.EUF"
 Recovered energy= -146.364968737     dipole=      1.936684152740      0.000000000000      0.482900248058
 Energy=    -146.364969     NIter=   0.
 Dipole moment=       1.936684       0.000000       0.482900
 Leave Link  402 at Tue May 27 14:49:24 2025, MaxMem=   104857600 cpu:               0.1 elap:             519.8
 (Enter /mlatom/software/Gaussian/g16-avx2/l601.exe)
 Leave Link  601 at Tue May 27 14:49:24 2025, MaxMem=   104857600 cpu:               0.1 elap:               0.2
 (Enter /mlatom/software/Gaussian/g16-avx2/l716.exe)
 Dipole        = 1.93668415D+00 0.00000000D+00 4.82900248D-01
 Full mass-weighted force constant matrix:
 Low frequencies ---   -0.0177   -0.0149   -0.0081    0.0093    0.0143    0.0155
 Low frequencies ---    6.2448   23.8760   32.7107
 Diagonal vibrational polarizability:
        0.0000000       0.0000000       0.0000000
 Harmonic frequencies (cm**-1), IR intensities (KM/Mole), Raman scattering
 activities (A**4/AMU), depolarization ratios for plane and unpolarized
 incident light, reduced masses (AMU), force constants (mDyne/A),
 and normal coordinates:
                      1                      2                      3
                      A                      A                      A
 Frequencies --      6.2448                23.8760                32.7107
 Red. masses --      3.5065                 6.0494                 3.7942
 Frc consts  --      0.0001                 0.0020                 0.0024
 IR Inten    --      0.0000                 0.0000                 0.0000
  Atom  AN      X      Y      Z        X      Y      Z        X      Y      Z
     1   6     0.01   0.01   0.01    -0.04  -0.00   0.00    -0.02   0.00   0.00
     2   6     0.01   0.00   0.01    -0.05  -0.00  -0.03    -0.02   0.02   0.00
     3   6     0.01   0.00   0.00    -0.06  -0.00  -0.04    -0.01   0.02   0.00
     4   6     0.00   0.01   0.00    -0.06  -0.00  -0.02    -0.00   0.02  -0.00
     5   6     0.00   0.02  -0.00    -0.06   0.00   0.00    -0.00   0.00  -0.00
     6   6     0.01   0.02   0.00    -0.05  -0.00   0.01    -0.01  -0.01   0.00
     7   6     0.02   0.01   0.01    -0.02  -0.00   0.00    -0.03  -0.00   0.00
     8   6     0.02  -0.00   0.01    -0.01  -0.00  -0.02    -0.04   0.01   0.01
     9   6     0.02  -0.01   0.01    -0.03  -0.00  -0.04    -0.03   0.02   0.00
    10   6     0.02  -0.02   0.01    -0.02  -0.00  -0.06    -0.03   0.04   0.00
    11   6     0.00  -0.01   0.00    -0.05  -0.00  -0.06    -0.01   0.04   0.00
    12   6    -0.01   0.00  -0.00    -0.06   0.00  -0.04     0.01   0.02  -0.00
    13   6    -0.01   0.00  -0.01    -0.05   0.00  -0.03     0.02   0.02  -0.00
    14   6    -0.01   0.01  -0.01    -0.04   0.00   0.00     0.02   0.00  -0.00
    15   6    -0.01   0.02  -0.00    -0.05   0.00   0.01     0.01  -0.01  -0.00
    16   6    -0.00   0.02  -0.00    -0.03   0.00   0.03     0.01  -0.02  -0.00
    17   6     0.00   0.02   0.00    -0.03   0.00   0.03    -0.01  -0.02   0.00
    18   6     0.01   0.01   0.01    -0.01   0.00   0.04    -0.02  -0.02   0.00
    19   6     0.02   0.01   0.01    -0.00  -0.00   0.02    -0.03  -0.01   0.00
    20   6     0.02  -0.01   0.01     0.01   0.00  -0.03    -0.04   0.01   0.00
    21   6     0.02  -0.01   0.01     0.03   0.00  -0.01    -0.03  -0.00   0.00
    22   6     0.02   0.00   0.01     0.02   0.00   0.02    -0.03  -0.01   0.00
    23   6     0.01   0.00   0.01     0.04   0.00   0.03    -0.02  -0.02   0.00
    24   6     0.00   0.01   0.00     0.02   0.00   0.04    -0.01  -0.03   0.00
    25   6    -0.00   0.01  -0.00     0.02   0.00   0.04     0.01  -0.03  -0.00
    26   6    -0.01   0.01  -0.01    -0.01   0.00   0.04     0.02  -0.02  -0.00
    27   6    -0.02   0.01  -0.01    -0.00   0.00   0.02     0.03  -0.01  -0.00
    28   6    -0.02   0.01  -0.01    -0.02   0.00   0.00     0.03  -0.00  -0.00
    29   6    -0.00  -0.01  -0.00    -0.05   0.00  -0.06     0.01   0.04  -0.00
    30   6    -0.02  -0.02  -0.01     0.02  -0.00  -0.05     0.03   0.02  -0.00
    31   6    -0.02  -0.02  -0.01     0.01  -0.00  -0.07     0.03   0.04  -0.00
    32   6    -0.01  -0.03  -0.01     0.01   0.00  -0.08     0.01   0.05  -0.00
    33   6    -0.00  -0.03  -0.00     0.03  -0.00  -0.08     0.01   0.04  -0.00
    34   6    -0.01  -0.03  -0.00     0.05  -0.00  -0.06     0.01   0.03  -0.00
    35   6    -0.01  -0.02  -0.01     0.05  -0.00  -0.02     0.02   0.01  -0.00
    36   6    -0.02  -0.01  -0.01     0.03  -0.00  -0.01     0.03  -0.00  -0.00
    37   6    -0.02  -0.01  -0.01     0.01  -0.00  -0.03     0.04   0.01  -0.00
    38   6    -0.02  -0.00  -0.01    -0.01   0.00  -0.02     0.04   0.01  -0.01
    39   6    -0.02  -0.01  -0.01    -0.03   0.00  -0.04     0.03   0.02  -0.00
    40   6    -0.02  -0.02  -0.01    -0.02  -0.00  -0.06     0.03   0.04  -0.00
    41   6     0.01  -0.03   0.01     0.01  -0.00  -0.08    -0.01   0.05   0.00
    42   6     0.00  -0.03   0.00     0.03   0.00  -0.08    -0.01   0.04   0.00
    43   6     0.01  -0.03   0.00     0.05   0.00  -0.06    -0.01   0.03   0.00
    44   6    -0.00  -0.03   0.00     0.06  -0.00  -0.05     0.00   0.02  -0.00
    45   6    -0.00  -0.02   0.00     0.07  -0.00  -0.02     0.00   0.01  -0.00
    46   6    -0.01  -0.02  -0.00     0.06  -0.00  -0.01     0.01  -0.00  -0.00
    47   6    -0.02   0.00  -0.01     0.02  -0.00   0.02     0.03  -0.01  -0.00
    48   6    -0.01   0.00  -0.01     0.04  -0.00   0.03     0.02  -0.02  -0.00
    49   6    -0.00  -0.01  -0.00     0.05   0.00   0.01     0.01  -0.01  -0.00
    50   6     0.00  -0.01   0.00     0.05  -0.00   0.01    -0.01  -0.01   0.00
    51   6     0.01  -0.02   0.00     0.06   0.00  -0.01    -0.01  -0.00   0.00
    52   6     0.01  -0.02   0.01     0.05   0.00  -0.02    -0.02   0.01   0.00
    53   6     0.01  -0.03   0.01     0.05   0.00  -0.05    -0.02   0.02   0.00
    54   6     0.02  -0.02   0.01     0.02   0.00  -0.05    -0.03   0.02   0.00
    55   6     0.02  -0.02   0.01     0.01   0.00  -0.07    -0.03   0.04   0.00
    56   6    -0.01  -0.02  -0.01    -0.03  -0.00  -0.07     0.01   0.04  -0.00
    57   6     0.01  -0.02   0.01    -0.03   0.00  -0.07    -0.01   0.04   0.00
    58   6    -0.01  -0.03  -0.01     0.05  -0.00  -0.05     0.02   0.02  -0.00
    59   6    -0.01  -0.03  -0.00    -0.01   0.00  -0.08     0.00   0.05  -0.00
    60   6     0.01  -0.03   0.00    -0.01  -0.00  -0.08    -0.00   0.05   0.00
    61   6    -0.01   0.05  -0.08    -0.02   0.00   0.20     0.06  -0.10  -0.03
    62   6     0.01   0.05   0.08    -0.02   0.00   0.20    -0.06  -0.10   0.03
    63   6     0.02   0.19  -0.16    -0.10   0.00   0.22     0.22  -0.08  -0.09
    64   1     0.02   0.18  -0.28    -0.09   0.00   0.22     0.37  -0.08  -0.15
    65   1     0.03   0.28  -0.12    -0.14  -0.00   0.18     0.22   0.07  -0.04
    66   1     0.02   0.23  -0.15    -0.11   0.00   0.28     0.20  -0.20  -0.12
    67   6    -0.02   0.19   0.16    -0.10   0.00   0.22    -0.22  -0.08   0.09
    68   1    -0.02   0.18   0.28    -0.09   0.00   0.22    -0.37  -0.08   0.15
    69   1    -0.02   0.23   0.15    -0.11  -0.00   0.28    -0.20  -0.20   0.12
    70   1    -0.03   0.28   0.12    -0.14   0.00   0.18    -0.22   0.07   0.04
    71   6     0.05  -0.06   0.14     0.05  -0.00   0.17    -0.03  -0.12   0.03
    72   1     0.07  -0.17   0.09     0.12  -0.00   0.16     0.09  -0.14  -0.01
    73   1     0.06  -0.06   0.26     0.05  -0.00   0.17    -0.13  -0.11   0.07
    74   6    -0.05  -0.06  -0.14     0.05   0.00   0.17     0.03  -0.12  -0.03
    75   1    -0.06  -0.06  -0.26     0.05   0.00   0.17     0.13  -0.11  -0.07
    76   1    -0.07  -0.17  -0.09     0.12   0.00   0.16    -0.09  -0.14   0.01
                      4                      5                      6
                      A                      A                      A
 Frequencies --     49.6293                65.3190                74.7296
 Red. masses --      3.8607                 3.8035                 4.0509
 Frc consts  --      0.0056                 0.0096                 0.0133
 IR Inten    --      0.0000                 0.0000                 0.0000
  Atom  AN      X      Y      Z        X      Y      Z        X      Y      Z
     1   6     0.02  -0.01  -0.00    -0.02  -0.00  -0.00    -0.01  -0.00   0.00
     2   6     0.02  -0.02  -0.00    -0.02  -0.00  -0.00    -0.01  -0.00   0.01
     3   6     0.01  -0.03  -0.00    -0.03  -0.00  -0.01    -0.01  -0.00   0.01
     4   6    -0.00  -0.02   0.00    -0.03   0.00  -0.00    -0.01   0.00   0.00
     5   6    -0.00  -0.01   0.00    -0.03   0.00  -0.00    -0.01   0.00   0.00
     6   6     0.01  -0.00  -0.00    -0.03  -0.00  -0.00    -0.01  -0.00   0.00
     7   6     0.02  -0.00  -0.01    -0.02  -0.00  -0.00    -0.01  -0.00   0.00
     8   6     0.03  -0.01  -0.01    -0.02  -0.00  -0.00    -0.01  -0.00   0.00
     9   6     0.02  -0.02  -0.01    -0.02  -0.00  -0.01    -0.01  -0.00   0.01
    10   6     0.02  -0.03  -0.00    -0.02  -0.00  -0.01    -0.01   0.00   0.00
    11   6     0.01  -0.03  -0.00    -0.02  -0.00  -0.01    -0.01  -0.00   0.01
    12   6    -0.01  -0.03   0.00    -0.03   0.00  -0.01    -0.01   0.00   0.01
    13   6    -0.02  -0.02   0.00    -0.02   0.00  -0.00    -0.01   0.00   0.01
    14   6    -0.02  -0.01   0.00    -0.02   0.00  -0.00    -0.01   0.00   0.00
    15   6    -0.01  -0.00   0.00    -0.03   0.00  -0.00    -0.01   0.00   0.00
    16   6    -0.01   0.01   0.00    -0.02  -0.00   0.00    -0.02   0.00   0.00
    17   6     0.01   0.01  -0.00    -0.02   0.00   0.00    -0.02  -0.00   0.00
    18   6     0.01   0.01  -0.00    -0.02   0.00   0.00    -0.02   0.00   0.00
    19   6     0.02   0.00  -0.00    -0.02  -0.00  -0.00    -0.01  -0.00   0.00
    20   6     0.03  -0.01  -0.01    -0.02  -0.00  -0.01    -0.01  -0.00   0.00
    21   6     0.02  -0.00  -0.01    -0.02  -0.00  -0.00    -0.02  -0.00   0.00
    22   6     0.02   0.00  -0.00    -0.02  -0.00  -0.00    -0.02  -0.00   0.00
    23   6     0.01   0.01  -0.00    -0.02  -0.00   0.00    -0.02   0.00   0.00
    24   6     0.01   0.01  -0.00    -0.02   0.00   0.00    -0.02   0.00   0.00
    25   6    -0.01   0.01   0.00    -0.02  -0.00   0.00    -0.02  -0.00   0.00
    26   6    -0.01   0.01   0.00    -0.02  -0.00   0.00    -0.02  -0.00   0.00
    27   6    -0.02   0.00   0.00    -0.02   0.00  -0.00    -0.01   0.00   0.00
    28   6    -0.02  -0.00   0.01    -0.02   0.00  -0.00    -0.01   0.00   0.00
    29   6    -0.01  -0.03   0.00    -0.02   0.00  -0.01    -0.01   0.00   0.01
    30   6    -0.02  -0.02   0.00    -0.02   0.00  -0.01    -0.01   0.00   0.00
    31   6    -0.02  -0.03   0.00    -0.02   0.00  -0.01    -0.01  -0.00   0.00
    32   6    -0.01  -0.04   0.00    -0.01  -0.00  -0.01    -0.01  -0.00   0.01
    33   6    -0.01  -0.03   0.00    -0.01  -0.00  -0.01    -0.02   0.00   0.00
    34   6    -0.01  -0.02   0.00    -0.01   0.00  -0.01    -0.02   0.00   0.01
    35   6    -0.02  -0.01   0.00    -0.01   0.00  -0.01    -0.02   0.00   0.00
    36   6    -0.02  -0.00   0.01    -0.02   0.00  -0.00    -0.02   0.00   0.00
    37   6    -0.03  -0.01   0.01    -0.02   0.00  -0.01    -0.01   0.00   0.00
    38   6    -0.03  -0.01   0.01    -0.02   0.00  -0.00    -0.01   0.00   0.00
    39   6    -0.02  -0.02   0.01    -0.02   0.00  -0.01    -0.01   0.00   0.01
    40   6    -0.02  -0.03   0.00    -0.02   0.00  -0.01    -0.01  -0.00   0.00
    41   6     0.01  -0.04  -0.00    -0.01   0.00  -0.01    -0.01   0.00   0.01
    42   6     0.01  -0.03  -0.00    -0.01   0.00  -0.01    -0.02  -0.00   0.00
    43   6     0.01  -0.02  -0.00    -0.01  -0.00  -0.01    -0.02  -0.00   0.01
    44   6    -0.00  -0.02   0.00    -0.01   0.00  -0.01    -0.02   0.00   0.01
    45   6    -0.00  -0.01   0.00    -0.01   0.00  -0.01    -0.02   0.00   0.00
    46   6    -0.01  -0.00   0.00    -0.01   0.00  -0.00    -0.02   0.00   0.00
    47   6    -0.02   0.00   0.00    -0.02   0.00  -0.00    -0.02   0.00   0.00
    48   6    -0.01   0.01   0.00    -0.02   0.00   0.00    -0.02  -0.00   0.00
    49   6    -0.01   0.01   0.00    -0.01   0.00  -0.00    -0.02   0.00   0.00
    50   6     0.01   0.01  -0.00    -0.01  -0.00  -0.00    -0.02  -0.00   0.00
    51   6     0.01  -0.00  -0.00    -0.01  -0.00  -0.00    -0.02  -0.00   0.00
    52   6     0.02  -0.01  -0.00    -0.01  -0.00  -0.01    -0.02  -0.00   0.00
    53   6     0.02  -0.02  -0.00    -0.01  -0.00  -0.01    -0.02  -0.00   0.00
    54   6     0.02  -0.02  -0.00    -0.02  -0.00  -0.01    -0.01  -0.00   0.00
    55   6     0.02  -0.03  -0.00    -0.02  -0.00  -0.01    -0.01   0.00   0.00
    56   6    -0.01  -0.04   0.00    -0.02   0.00  -0.01    -0.01  -0.00   0.00
    57   6     0.01  -0.04  -0.00    -0.02  -0.00  -0.01    -0.01   0.00   0.00
    58   6    -0.02  -0.02   0.00    -0.01   0.00  -0.01    -0.02   0.00   0.00
    59   6     0.00  -0.04  -0.00    -0.01  -0.00  -0.01    -0.03   0.00   0.01
    60   6    -0.00  -0.04   0.00    -0.01   0.00  -0.01    -0.03  -0.00   0.01
    61   6     0.06   0.12   0.02     0.14   0.00   0.05     0.12   0.01  -0.04
    62   6    -0.06   0.12  -0.02     0.14  -0.00   0.05     0.12  -0.01  -0.04
    63   6     0.21   0.05   0.02     0.29  -0.00   0.01    -0.05  -0.00   0.01
    64   1     0.36   0.06   0.04     0.29  -0.00   0.01    -0.02  -0.00   0.01
    65   1     0.21   0.14   0.05     0.38   0.01   0.08    -0.15  -0.00  -0.08
    66   1     0.19  -0.09  -0.03     0.33  -0.01  -0.11    -0.09  -0.01   0.14
    67   6    -0.21   0.05  -0.02     0.29   0.00   0.01    -0.05   0.00   0.01
    68   1    -0.36   0.06  -0.04     0.29   0.00   0.01    -0.02   0.00   0.01
    69   1    -0.19  -0.09   0.03     0.33   0.01  -0.11    -0.09   0.01   0.14
    70   1    -0.21   0.14  -0.05     0.38  -0.01   0.08    -0.15   0.00  -0.08
    71   6    -0.04   0.18  -0.07     0.03  -0.00   0.08     0.32  -0.01  -0.09
    72   1     0.07   0.23  -0.08    -0.06  -0.00   0.11     0.38  -0.01  -0.11
    73   1    -0.13   0.18  -0.11     0.04  -0.00   0.09     0.36  -0.02  -0.11
    74   6     0.04   0.18   0.07     0.03   0.00   0.08     0.32   0.01  -0.09
    75   1     0.13   0.18   0.11     0.04   0.00   0.09     0.36   0.02  -0.11
    76   1    -0.07   0.23   0.08    -0.06   0.00   0.11     0.38   0.01  -0.11
                      7                      8                      9
                      A                      A                      A
 Frequencies --     97.3416               135.5336               236.6442
 Red. masses --      3.1053                 1.0750                 1.0800
 Frc consts  --      0.0173                 0.0116                 0.0356
 IR Inten    --      0.0000                 0.0000                 0.0000
  Atom  AN      X      Y      Z        X      Y      Z        X      Y      Z
     1   6    -0.00  -0.00   0.00     0.00   0.00  -0.00    -0.00  -0.00   0.00
     2   6    -0.00   0.00   0.00     0.00   0.00  -0.00     0.00  -0.00   0.00
     3   6     0.00   0.00   0.00    -0.00  -0.00  -0.00     0.00  -0.00   0.00
     4   6    -0.00   0.00   0.00    -0.00  -0.00  -0.00     0.00   0.00   0.00
     5   6    -0.00  -0.00   0.00    -0.00   0.00  -0.00     0.00   0.00   0.00
     6   6    -0.00  -0.00   0.00     0.00   0.00  -0.00    -0.00  -0.00   0.00
     7   6    -0.00  -0.00   0.00     0.00   0.00  -0.00    -0.00  -0.00   0.00
     8   6    -0.00  -0.00   0.00     0.00   0.00  -0.00    -0.00  -0.00   0.00
     9   6    -0.00   0.00   0.00     0.00   0.00  -0.00     0.00  -0.00   0.00
    10   6     0.00   0.00   0.00    -0.00  -0.00  -0.00     0.00  -0.00  -0.00
    11   6     0.00   0.00  -0.00    -0.00  -0.00   0.00     0.00   0.00  -0.00
    12   6    -0.00   0.00  -0.00     0.00  -0.00   0.00     0.00   0.00   0.00
    13   6     0.00   0.00  -0.00    -0.00   0.00   0.00     0.00   0.00   0.00
    14   6     0.00  -0.00  -0.00    -0.00   0.00   0.00    -0.00   0.00   0.00
    15   6     0.00  -0.00  -0.00    -0.00   0.00   0.00    -0.00   0.00   0.00
    16   6     0.00  -0.00  -0.00    -0.00   0.00   0.00    -0.00   0.00   0.00
    17   6    -0.00  -0.00   0.00     0.00   0.00  -0.00    -0.00  -0.00   0.00
    18   6    -0.00  -0.00   0.00     0.00   0.00  -0.00    -0.00   0.00   0.00
    19   6    -0.00  -0.00   0.00     0.00   0.00  -0.00    -0.00  -0.00   0.00
    20   6    -0.00  -0.00   0.00     0.00   0.00  -0.00    -0.00  -0.00  -0.00
    21   6    -0.00  -0.00   0.00     0.00   0.00  -0.00    -0.00  -0.00  -0.00
    22   6    -0.00  -0.01   0.00     0.00   0.00  -0.00    -0.00  -0.00   0.00
    23   6    -0.00  -0.01   0.00     0.00   0.00  -0.00    -0.00   0.00   0.00
    24   6    -0.00  -0.01   0.00     0.00   0.00  -0.00    -0.01   0.00   0.00
    25   6     0.00  -0.01  -0.00    -0.00   0.00   0.00    -0.01  -0.00   0.00
    26   6     0.00  -0.00  -0.00    -0.00   0.00   0.00    -0.00  -0.00   0.00
    27   6     0.00  -0.00  -0.00    -0.00   0.00   0.00    -0.00   0.00   0.00
    28   6     0.00  -0.00  -0.00    -0.00   0.00   0.00    -0.00   0.00   0.00
    29   6    -0.00   0.00   0.00     0.00  -0.00  -0.00     0.00  -0.00  -0.00
    30   6     0.00  -0.00  -0.00     0.00   0.00   0.00    -0.00   0.00  -0.00
    31   6    -0.00   0.00  -0.00     0.00  -0.00   0.00     0.00   0.00  -0.00
    32   6    -0.00   0.00   0.00     0.00  -0.00   0.00     0.00   0.00  -0.00
    33   6    -0.00   0.00  -0.00     0.00  -0.00   0.00     0.00   0.00  -0.00
    34   6     0.00  -0.00  -0.00     0.00  -0.00   0.00    -0.00   0.00  -0.00
    35   6     0.00  -0.00  -0.00    -0.00   0.00   0.00    -0.00   0.00  -0.00
    36   6     0.00  -0.00  -0.00    -0.00   0.00   0.00    -0.00   0.00  -0.00
    37   6     0.00  -0.00  -0.00    -0.00   0.00   0.00    -0.00   0.00  -0.00
    38   6     0.00  -0.00  -0.00    -0.00   0.00   0.00    -0.00   0.00   0.00
    39   6     0.00   0.00  -0.00    -0.00   0.00   0.00     0.00   0.00   0.00
    40   6    -0.00   0.00  -0.00     0.00  -0.00   0.00     0.00   0.00  -0.00
    41   6     0.00   0.00  -0.00    -0.00  -0.00  -0.00     0.00  -0.00  -0.00
    42   6     0.00   0.00   0.00    -0.00  -0.00  -0.00     0.00  -0.00  -0.00
    43   6    -0.00  -0.00   0.00    -0.00  -0.00  -0.00    -0.00  -0.00  -0.00
    44   6    -0.00  -0.00   0.00    -0.00  -0.00  -0.00    -0.00  -0.00  -0.00
    45   6    -0.00  -0.00   0.00    -0.00   0.00  -0.00    -0.00  -0.00  -0.00
    46   6     0.00  -0.00  -0.00    -0.00   0.00   0.00    -0.00   0.00  -0.00
    47   6     0.00  -0.01  -0.00    -0.00   0.00   0.00    -0.00   0.00   0.00
    48   6     0.00  -0.01  -0.00    -0.00   0.00   0.00    -0.00  -0.00   0.00
    49   6     0.00  -0.01  -0.00    -0.00   0.00   0.00    -0.00  -0.00   0.00
    50   6    -0.00  -0.01   0.00     0.00   0.00  -0.00    -0.00   0.00   0.00
    51   6    -0.00  -0.00   0.00     0.00   0.00  -0.00    -0.00  -0.00  -0.00
    52   6    -0.00  -0.00   0.00     0.00   0.00  -0.00    -0.00  -0.00  -0.00
    53   6    -0.00  -0.00   0.00    -0.00  -0.00  -0.00    -0.00  -0.00  -0.00
    54   6    -0.00  -0.00   0.00    -0.00   0.00  -0.00    -0.00  -0.00  -0.00
    55   6     0.00   0.00   0.00    -0.00  -0.00  -0.00     0.00  -0.00  -0.00
    56   6    -0.00   0.00   0.00     0.00  -0.00   0.00     0.01   0.00  -0.00
    57   6     0.00   0.00  -0.00    -0.00  -0.00  -0.00     0.01  -0.00  -0.00
    58   6     0.00  -0.00  -0.00     0.00  -0.00   0.00    -0.00   0.00  -0.00
    59   6     0.00   0.00   0.00    -0.00  -0.00   0.00     0.01  -0.00  -0.00
    60   6    -0.00   0.00  -0.00     0.00  -0.00  -0.00     0.01   0.00  -0.00
    61   6     0.06   0.01  -0.02    -0.01  -0.00   0.00     0.04  -0.00  -0.01
    62   6    -0.06   0.01   0.02     0.01  -0.00  -0.00     0.04   0.00  -0.01
    63   6    -0.05   0.01   0.01    -0.02  -0.00   0.01     0.01  -0.00  -0.00
    64   1     0.08   0.01  -0.03     0.34   0.00  -0.10     0.37   0.00  -0.10
    65   1    -0.20   0.11  -0.09    -0.28   0.30  -0.12    -0.27   0.28  -0.14
    66   1    -0.13  -0.08   0.17    -0.18  -0.30   0.24    -0.16  -0.28   0.26
    67   6     0.05   0.01  -0.01     0.02  -0.00  -0.01     0.01   0.00  -0.00
    68   1    -0.08   0.01   0.03    -0.34   0.00   0.10     0.37  -0.00  -0.10
    69   1     0.13  -0.08  -0.17     0.18  -0.30  -0.24    -0.16   0.28   0.26
    70   1     0.20   0.11   0.09     0.28   0.30   0.12    -0.27  -0.28  -0.14
    71   6    -0.28   0.02   0.09     0.05  -0.00  -0.01    -0.03   0.00   0.01
    72   1    -0.35   0.01   0.11     0.06  -0.00  -0.02    -0.04   0.00   0.01
    73   1    -0.37   0.02   0.12     0.06  -0.00  -0.02    -0.05   0.00   0.02
    74   6     0.28   0.02  -0.09    -0.05  -0.00   0.01    -0.03  -0.00   0.01
    75   1     0.37   0.02  -0.12    -0.06  -0.00   0.02    -0.05  -0.00   0.02
    76   1     0.35   0.01  -0.11    -0.06  -0.00   0.02    -0.04  -0.00   0.01
                     10                     11                     12
                      A                      A                      A
 Frequencies --    254.1882               254.6638               254.6821
 Red. masses --      9.9763                11.9978                11.9640
 Frc consts  --      0.3798                 0.4584                 0.4572
 IR Inten    --      0.0000                 0.0000                 0.0000
  Atom  AN      X      Y      Z        X      Y      Z        X      Y      Z
     1   6     0.04  -0.06   0.08    -0.04   0.14  -0.14    -0.01  -0.07  -0.08
     2   6     0.04  -0.05   0.05    -0.01   0.14  -0.15    -0.01  -0.06  -0.09
     3   6     0.08  -0.01   0.04     0.01   0.12  -0.09     0.01  -0.02  -0.15
     4   6     0.06   0.00   0.10     0.00   0.11   0.00    -0.02   0.00  -0.19
     5   6     0.06   0.00   0.14     0.00   0.10   0.00    -0.04   0.00  -0.17
     6   6     0.02  -0.03   0.11    -0.05   0.11  -0.07    -0.05  -0.02  -0.12
     7   6     0.00  -0.06   0.06    -0.04   0.09  -0.11     0.01  -0.16  -0.02
     8   6     0.01  -0.06   0.01    -0.02   0.06  -0.11     0.00  -0.22   0.00
     9   6     0.04  -0.04   0.02     0.01   0.10  -0.12    -0.01  -0.15  -0.02
    10   6     0.08  -0.02  -0.04     0.00   0.05  -0.09    -0.02  -0.12  -0.01
    11   6     0.13   0.00  -0.05     0.01   0.09  -0.06     0.03  -0.00  -0.11
    12   6     0.08   0.01   0.04    -0.02   0.12   0.09     0.01   0.02  -0.15
    13   6     0.04   0.05   0.05     0.01   0.14   0.15    -0.01   0.06  -0.08
    14   6     0.04   0.06   0.08     0.04   0.14   0.14    -0.01   0.07  -0.08
    15   6     0.02   0.03   0.12     0.05   0.11   0.07    -0.05   0.02  -0.12
    16   6    -0.03   0.00   0.08     0.03   0.08   0.05    -0.04   0.01  -0.07
    17   6    -0.03  -0.00   0.08    -0.03   0.08  -0.05    -0.04  -0.01  -0.07
    18   6    -0.10  -0.00   0.06    -0.04   0.04  -0.04    -0.01  -0.06  -0.02
    19   6    -0.05  -0.02   0.04    -0.02   0.04  -0.08     0.03  -0.12  -0.00
    20   6    -0.02  -0.06  -0.01    -0.02  -0.06  -0.11    -0.00  -0.22  -0.00
    21   6    -0.05  -0.04  -0.02     0.01  -0.10  -0.12     0.01  -0.15   0.02
    22   6    -0.09  -0.01   0.04     0.00  -0.05  -0.09     0.02  -0.11   0.01
    23   6    -0.16   0.02   0.07     0.03  -0.05  -0.06    -0.01  -0.05   0.05
    24   6    -0.18   0.01   0.07    -0.00  -0.01  -0.04    -0.03  -0.01   0.02
    25   6    -0.18  -0.01   0.07     0.01  -0.01   0.04    -0.03   0.01   0.02
    26   6    -0.10   0.00   0.06     0.04   0.04   0.04    -0.01   0.06  -0.02
    27   6    -0.05   0.02   0.04     0.02   0.04   0.08     0.03   0.12  -0.00
    28   6     0.00   0.06   0.06     0.04   0.09   0.11     0.01   0.16  -0.02
    29   6     0.13  -0.00  -0.05    -0.01   0.09   0.06     0.03   0.00  -0.11
    30   6    -0.00   0.07  -0.06     0.04  -0.09   0.11    -0.01   0.16   0.02
    31   6     0.05   0.03  -0.04     0.02  -0.04   0.08    -0.03   0.12   0.00
    32   6     0.10   0.00  -0.06     0.04  -0.04   0.04     0.01   0.06   0.02
    33   6     0.03   0.00  -0.08     0.03  -0.08   0.05     0.04   0.01   0.07
    34   6    -0.02   0.03  -0.12     0.05  -0.11   0.07     0.05   0.02   0.12
    35   6    -0.04   0.05  -0.05     0.01  -0.14   0.15     0.01   0.06   0.09
    36   6    -0.05   0.04  -0.02    -0.01  -0.10   0.12     0.01   0.15   0.02
    37   6    -0.01   0.06  -0.01     0.02  -0.06   0.11    -0.00   0.22  -0.00
    38   6     0.01   0.06   0.01     0.02   0.06   0.11     0.00   0.22   0.00
    39   6     0.05   0.04   0.02    -0.01   0.10   0.12    -0.02   0.15  -0.02
    40   6     0.08   0.02  -0.04    -0.00   0.05   0.09    -0.02   0.12  -0.00
    41   6     0.10  -0.00  -0.06    -0.04  -0.04  -0.04     0.01  -0.06   0.02
    42   6     0.03  -0.00  -0.08    -0.03  -0.08  -0.05     0.04  -0.01   0.07
    43   6    -0.02  -0.03  -0.12    -0.05  -0.11  -0.08     0.05  -0.02   0.12
    44   6    -0.06  -0.00  -0.14    -0.00  -0.10  -0.00     0.04  -0.00   0.17
    45   6    -0.06  -0.00  -0.10    -0.00  -0.11  -0.00     0.02  -0.00   0.19
    46   6    -0.08   0.01  -0.04    -0.01  -0.12   0.09    -0.01   0.02   0.15
    47   6    -0.09   0.01   0.04    -0.00  -0.05   0.09     0.02   0.11   0.01
    48   6    -0.16  -0.02   0.07    -0.03  -0.05   0.06    -0.02   0.05   0.05
    49   6    -0.13  -0.00   0.05    -0.01  -0.08   0.05    -0.02   0.00   0.11
    50   6    -0.13   0.00   0.05     0.01  -0.08  -0.06    -0.02  -0.00   0.11
    51   6    -0.08  -0.01  -0.04     0.01  -0.12  -0.09    -0.01  -0.02   0.15
    52   6    -0.04  -0.05  -0.05    -0.01  -0.14  -0.15     0.01  -0.06   0.08
    53   6    -0.04  -0.06  -0.08    -0.04  -0.14  -0.14     0.01  -0.07   0.08
    54   6    -0.00  -0.07  -0.06    -0.04  -0.09  -0.11    -0.01  -0.16   0.02
    55   6     0.05  -0.03  -0.04    -0.02  -0.04  -0.08    -0.03  -0.12   0.00
    56   6     0.16  -0.02  -0.07    -0.03   0.05   0.06     0.02   0.06  -0.05
    57   6     0.16   0.02  -0.07     0.03   0.05  -0.06     0.02  -0.06  -0.05
    58   6    -0.04   0.06  -0.08     0.04  -0.14   0.14     0.01   0.07   0.08
    59   6     0.20  -0.01  -0.08     0.00   0.01   0.04     0.04   0.01  -0.02
    60   6     0.20   0.01  -0.08    -0.01   0.01  -0.04     0.04  -0.01  -0.02
    61   6     0.03  -0.00  -0.00    -0.00   0.00   0.00     0.01  -0.00  -0.00
    62   6     0.03   0.00  -0.00     0.00   0.00  -0.00     0.01   0.00  -0.00
    63   6    -0.02   0.01   0.00     0.00  -0.00  -0.00    -0.00   0.00   0.00
    64   1    -0.19   0.01   0.04    -0.00  -0.00   0.00    -0.03   0.00   0.01
    65   1     0.06  -0.11   0.03     0.01  -0.00   0.00     0.01  -0.02   0.00
    66   1     0.04   0.15  -0.06     0.00   0.00  -0.00     0.00   0.02  -0.01
    67   6    -0.02  -0.01   0.00    -0.00  -0.00   0.00    -0.00  -0.00   0.00
    68   1    -0.19  -0.01   0.04     0.00  -0.00  -0.00    -0.03  -0.00   0.01
    69   1     0.04  -0.15  -0.06    -0.00   0.00   0.00     0.00  -0.02  -0.01
    70   1     0.06   0.11   0.03    -0.01  -0.00  -0.00     0.01   0.02   0.00
    71   6    -0.02   0.02  -0.00     0.00   0.00  -0.00    -0.00   0.00  -0.00
    72   1     0.05   0.03  -0.02     0.00  -0.00  -0.00     0.01   0.00  -0.00
    73   1    -0.07   0.02  -0.00     0.00   0.00  -0.00    -0.01   0.00   0.00
    74   6    -0.02  -0.02  -0.00    -0.00   0.00   0.00    -0.00  -0.00  -0.00
    75   1    -0.07  -0.02  -0.00    -0.00   0.00   0.00    -0.01  -0.00   0.00
    76   1     0.05  -0.03  -0.02    -0.00  -0.00   0.00     0.01  -0.00  -0.00
                     13                     14                     15
                      A                      A                      A
 Frequencies --    255.5033               255.7295               311.2330
 Red. masses --     11.9894                11.7947                 2.8919
 Frc consts  --      0.4611                 0.4545                 0.1650
 IR Inten    --      0.0000                 0.0000                 0.0000
  Atom  AN      X      Y      Z        X      Y      Z        X      Y      Z
     1   6    -0.09   0.06  -0.01     0.08   0.02  -0.00    -0.01   0.01  -0.01
     2   6    -0.08  -0.04   0.03     0.06   0.04  -0.08    -0.01   0.00   0.00
     3   6    -0.04  -0.04   0.04     0.06   0.03  -0.13    -0.01  -0.00   0.01
     4   6     0.00  -0.03  -0.00     0.08   0.00  -0.11    -0.00   0.00   0.00
     5   6     0.00   0.04  -0.00     0.11  -0.00  -0.00    -0.01  -0.00  -0.01
     6   6    -0.05   0.05  -0.03     0.14  -0.01   0.04    -0.01   0.00  -0.01
     7   6    -0.12   0.09  -0.01     0.06   0.00   0.01    -0.00   0.01  -0.01
     8   6    -0.10   0.00   0.02     0.03   0.05  -0.01    -0.00   0.00   0.00
     9   6    -0.11  -0.08   0.05     0.02   0.07  -0.07    -0.01  -0.00   0.00
    10   6    -0.13  -0.14   0.04     0.00   0.04  -0.08    -0.01  -0.01   0.00
    11   6    -0.04  -0.08   0.02     0.06   0.01  -0.15    -0.01  -0.00   0.01
    12   6     0.04  -0.04  -0.04     0.06  -0.03  -0.13    -0.01   0.00   0.01
    13   6     0.08  -0.05  -0.03     0.06  -0.04  -0.08    -0.01  -0.00   0.00
    14   6     0.09   0.06   0.01     0.08  -0.02  -0.00    -0.01  -0.01  -0.01
    15   6     0.06   0.05   0.03     0.14   0.01   0.04    -0.01  -0.00  -0.01
    16   6     0.05   0.09   0.01     0.20   0.01   0.09     0.00  -0.00  -0.01
    17   6    -0.05   0.09  -0.00     0.20  -0.01   0.09     0.00   0.00  -0.01
    18   6    -0.10   0.12  -0.01     0.16  -0.03   0.08     0.01   0.00  -0.00
    19   6    -0.14   0.15   0.01     0.09  -0.00   0.06     0.00   0.01  -0.00
    20   6    -0.10  -0.00   0.02    -0.03   0.05   0.01    -0.00   0.00   0.00
    21   6    -0.11   0.08   0.05    -0.02   0.07   0.06    -0.00   0.01   0.01
    22   6    -0.14   0.14   0.04    -0.00   0.04   0.08     0.00   0.01   0.00
    23   6    -0.09   0.11   0.04     0.00   0.03   0.11     0.01   0.00  -0.00
    24   6    -0.06   0.11   0.01     0.10  -0.00   0.08     0.02  -0.00  -0.00
    25   6     0.06   0.11  -0.01     0.10   0.00   0.08     0.02   0.00  -0.00
    26   6     0.10   0.12   0.01     0.16   0.03   0.08     0.01  -0.00  -0.00
    27   6     0.14   0.15  -0.01     0.09  -0.00   0.06     0.00  -0.01  -0.00
    28   6     0.12   0.09   0.01     0.06  -0.00   0.01    -0.00  -0.01  -0.01
    29   6     0.04  -0.08  -0.02     0.06  -0.01  -0.15    -0.01   0.00   0.01
    30   6     0.12  -0.09   0.01    -0.06  -0.00  -0.02    -0.01   0.00  -0.00
    31   6     0.14  -0.15  -0.01    -0.09  -0.00  -0.06    -0.01   0.01   0.00
    32   6     0.10  -0.12   0.01    -0.15   0.03  -0.08     0.00   0.00  -0.00
    33   6     0.04  -0.09   0.00    -0.20   0.01  -0.09    -0.01   0.00  -0.00
    34   6     0.05  -0.05   0.03    -0.14   0.01  -0.04    -0.01   0.00  -0.00
    35   6     0.08   0.04  -0.03    -0.07  -0.04   0.08    -0.00  -0.01   0.01
    36   6     0.11   0.08  -0.05    -0.02  -0.07   0.06    -0.00  -0.01   0.01
    37   6     0.10  -0.01  -0.02    -0.03  -0.05   0.01    -0.00  -0.00   0.00
    38   6     0.10   0.00  -0.02     0.03  -0.05  -0.01    -0.00  -0.00   0.00
    39   6     0.11  -0.08  -0.05     0.02  -0.07  -0.06    -0.01   0.00   0.00
    40   6     0.13  -0.14  -0.04     0.00  -0.04  -0.08    -0.01   0.01   0.00
    41   6    -0.10  -0.12  -0.01    -0.15  -0.02  -0.08     0.00  -0.00  -0.00
    42   6    -0.05  -0.09  -0.01    -0.20  -0.01  -0.09    -0.01  -0.00  -0.00
    43   6    -0.05  -0.05  -0.03    -0.14  -0.01  -0.04    -0.01  -0.00  -0.00
    44   6    -0.00  -0.04   0.00    -0.11   0.00   0.00    -0.01  -0.00  -0.00
    45   6    -0.00   0.03   0.00    -0.08  -0.00   0.11    -0.00   0.00   0.01
    46   6     0.04   0.04  -0.04    -0.06  -0.03   0.13    -0.00  -0.00   0.01
    47   6     0.14   0.14  -0.04    -0.01  -0.04   0.08     0.00  -0.01   0.00
    48   6     0.09   0.11  -0.04     0.00  -0.03   0.11     0.01  -0.00  -0.00
    49   6     0.04   0.08  -0.02    -0.07  -0.01   0.15     0.00  -0.00   0.00
    50   6    -0.04   0.08   0.02    -0.07   0.01   0.15     0.00   0.00   0.00
    51   6    -0.04   0.04   0.04    -0.06   0.03   0.13    -0.00   0.00   0.01
    52   6    -0.08   0.04   0.03    -0.06   0.04   0.08    -0.00   0.01   0.01
    53   6    -0.09  -0.06  -0.01    -0.08   0.01  -0.00    -0.01   0.00   0.00
    54   6    -0.12  -0.09  -0.01    -0.06   0.00  -0.01    -0.01  -0.00  -0.00
    55   6    -0.14  -0.15   0.01    -0.09   0.00  -0.06    -0.01  -0.01   0.00
    56   6     0.09  -0.11  -0.04    -0.01  -0.03  -0.11     0.00   0.00   0.00
    57   6    -0.09  -0.11   0.04    -0.00   0.03  -0.11     0.00  -0.00   0.00
    58   6     0.08  -0.06   0.01    -0.09  -0.01  -0.00    -0.01  -0.00   0.00
    59   6     0.06  -0.11  -0.01    -0.10   0.00  -0.07     0.02  -0.00  -0.00
    60   6    -0.06  -0.11   0.01    -0.10  -0.00  -0.07     0.02   0.00  -0.00
    61   6     0.00  -0.00  -0.00    -0.02   0.00   0.00     0.05   0.00   0.07
    62   6    -0.00  -0.00   0.00    -0.02  -0.00   0.00     0.05  -0.00   0.07
    63   6     0.00  -0.00  -0.00     0.02  -0.01  -0.00    -0.02   0.23  -0.03
    64   1    -0.00  -0.00   0.00     0.07  -0.00  -0.01    -0.10   0.20  -0.22
    65   1     0.00  -0.00  -0.00     0.00   0.03  -0.00    -0.01   0.30   0.00
    66   1     0.00   0.00  -0.00     0.00  -0.05  -0.00    -0.00   0.35   0.03
    67   6    -0.00  -0.00   0.00     0.02   0.01  -0.00    -0.02  -0.23  -0.03
    68   1     0.01  -0.00  -0.00     0.07   0.00  -0.01    -0.10  -0.20  -0.22
    69   1    -0.00   0.00   0.00     0.01   0.05  -0.00    -0.00  -0.35   0.03
    70   1    -0.00  -0.00   0.00     0.00  -0.03  -0.00    -0.01  -0.30   0.00
    71   6    -0.01  -0.00   0.00     0.01  -0.01   0.00    -0.00   0.14  -0.01
    72   1    -0.01  -0.00   0.00    -0.01  -0.01   0.01     0.03   0.24   0.02
    73   1    -0.02  -0.00   0.01     0.03  -0.01   0.00    -0.06   0.14  -0.14
    74   6     0.01  -0.00  -0.00     0.01   0.01   0.00    -0.00  -0.14  -0.01
    75   1     0.02  -0.00  -0.01     0.03   0.01   0.00    -0.06  -0.14  -0.14
    76   1     0.01  -0.00  -0.00    -0.01   0.01   0.01     0.03  -0.24   0.02
                     16                     17                     18
                      A                      A                      A
 Frequencies --    325.6656               333.2037               333.7169
 Red. masses --      4.5365                11.9902                11.9852
 Frc consts  --      0.2835                 0.7843                 0.7864
 IR Inten    --      0.0000                 0.0000                 0.0000
  Atom  AN      X      Y      Z        X      Y      Z        X      Y      Z
     1   6    -0.04   0.02  -0.03    -0.03   0.15  -0.08     0.02  -0.09   0.10
     2   6    -0.03  -0.00   0.02    -0.01   0.15  -0.09     0.03  -0.09   0.10
     3   6    -0.03  -0.01   0.07    -0.03   0.04   0.08     0.02  -0.04   0.04
     4   6    -0.02   0.00   0.05     0.02   0.00   0.14     0.00  -0.03  -0.00
     5   6    -0.04  -0.00  -0.05     0.06   0.00   0.15     0.00  -0.04  -0.00
     6   6    -0.04   0.02  -0.06     0.07   0.03   0.08    -0.00  -0.04   0.04
     7   6    -0.02   0.04  -0.03    -0.06   0.17  -0.08    -0.02  -0.07   0.06
     8   6    -0.01   0.01  -0.00    -0.02   0.13  -0.10     0.01  -0.12   0.02
     9   6    -0.02  -0.02   0.02     0.02   0.16  -0.10     0.05  -0.07   0.04
    10   6    -0.01  -0.03   0.01    -0.02   0.04  -0.04     0.15   0.10  -0.04
    11   6    -0.02  -0.00   0.05    -0.06   0.00   0.09     0.04   0.03  -0.00
    12   6    -0.03   0.01   0.07    -0.03  -0.04   0.08    -0.02  -0.04  -0.04
    13   6    -0.03   0.00   0.02    -0.01  -0.15  -0.09    -0.03  -0.09  -0.10
    14   6    -0.04  -0.02  -0.03    -0.03  -0.15  -0.08    -0.02  -0.09  -0.10
    15   6    -0.04  -0.02  -0.06     0.07  -0.03   0.08     0.00  -0.04  -0.04
    16   6    -0.01  -0.00  -0.04     0.10  -0.00   0.07     0.04   0.03  -0.02
    17   6    -0.01   0.00  -0.04     0.10   0.00   0.07    -0.04   0.03   0.02
    18   6     0.06  -0.00  -0.02     0.02   0.02   0.02    -0.16   0.10  -0.00
    19   6     0.01   0.02  -0.01    -0.01   0.06  -0.04    -0.15   0.09   0.02
    20   6    -0.01   0.01   0.00    -0.02  -0.13  -0.10    -0.00  -0.12  -0.02
    21   6    -0.01   0.03   0.03     0.02  -0.16  -0.10    -0.05  -0.07  -0.04
    22   6     0.01   0.02   0.00    -0.02  -0.04  -0.04    -0.15   0.09   0.04
    23   6     0.06  -0.00  -0.00    -0.02  -0.02   0.03    -0.15   0.10   0.07
    24   6     0.12  -0.01  -0.02    -0.00   0.00   0.02    -0.13   0.11   0.03
    25   6     0.12   0.01  -0.02    -0.00  -0.00   0.02     0.13   0.11  -0.03
    26   6     0.06   0.00  -0.02     0.02  -0.02   0.02     0.16   0.10   0.00
    27   6     0.01  -0.02  -0.01    -0.01  -0.06  -0.04     0.15   0.09  -0.02
    28   6    -0.02  -0.04  -0.03    -0.06  -0.17  -0.08     0.02  -0.08  -0.06
    29   6    -0.02   0.00   0.05    -0.06  -0.00   0.09    -0.04   0.03   0.00
    30   6    -0.02   0.03  -0.02    -0.06   0.17  -0.08    -0.03  -0.07   0.06
    31   6    -0.01   0.03  -0.01    -0.01   0.06  -0.04    -0.15   0.09   0.02
    32   6     0.04   0.00  -0.02     0.02   0.03   0.02    -0.16   0.10  -0.00
    33   6    -0.03   0.00  -0.04     0.10   0.00   0.07    -0.04   0.03   0.02
    34   6    -0.05   0.01  -0.05     0.07   0.03   0.08    -0.00  -0.04   0.04
    35   6    -0.03  -0.02   0.04    -0.00   0.15  -0.09     0.02  -0.09   0.10
    36   6    -0.01  -0.03   0.03     0.02   0.16  -0.10     0.05  -0.07   0.04
    37   6    -0.01  -0.01   0.00    -0.02   0.13  -0.10     0.00  -0.12   0.02
    38   6    -0.01  -0.01  -0.00    -0.02  -0.13  -0.10    -0.01  -0.12  -0.02
    39   6    -0.02   0.02   0.02     0.02  -0.16  -0.10    -0.05  -0.07  -0.04
    40   6    -0.01   0.03   0.01    -0.02  -0.04  -0.04    -0.15   0.10   0.04
    41   6     0.04  -0.00  -0.02     0.02  -0.03   0.02     0.16   0.10   0.00
    42   6    -0.03  -0.00  -0.04     0.10  -0.00   0.07     0.04   0.03  -0.02
    43   6    -0.05  -0.01  -0.05     0.07  -0.03   0.08     0.00  -0.04  -0.04
    44   6    -0.04  -0.00  -0.03     0.06   0.00   0.15     0.00  -0.04  -0.00
    45   6    -0.02   0.00   0.06     0.02   0.00   0.14     0.00  -0.03  -0.00
    46   6    -0.01  -0.02   0.07    -0.02   0.04   0.08     0.02  -0.04   0.04
    47   6     0.01  -0.02   0.00    -0.02   0.04  -0.04     0.15   0.09  -0.04
    48   6     0.06   0.00  -0.00    -0.02   0.02   0.03     0.15   0.10  -0.07
    49   6     0.00  -0.00   0.04    -0.06   0.00   0.08     0.04   0.04  -0.00
    50   6     0.00   0.00   0.04    -0.06  -0.00   0.08    -0.04   0.04   0.00
    51   6    -0.01   0.02   0.07    -0.02  -0.04   0.08    -0.02  -0.04  -0.04
    52   6    -0.03   0.02   0.04    -0.00  -0.15  -0.09    -0.02  -0.09  -0.10
    53   6    -0.04  -0.01  -0.01    -0.03  -0.15  -0.08    -0.02  -0.09  -0.10
    54   6    -0.02  -0.03  -0.02    -0.06  -0.17  -0.08     0.03  -0.07  -0.06
    55   6    -0.01  -0.03  -0.01    -0.01  -0.06  -0.04     0.15   0.09  -0.02
    56   6     0.04   0.00   0.00    -0.02  -0.02   0.03    -0.15   0.10   0.07
    57   6     0.04  -0.00   0.00    -0.02   0.02   0.03     0.15   0.10  -0.07
    58   6    -0.04   0.01  -0.01    -0.03   0.15  -0.08     0.02  -0.09   0.10
    59   6     0.13  -0.01  -0.03    -0.00   0.00   0.02    -0.13   0.11   0.03
    60   6     0.13   0.01  -0.03    -0.00  -0.00   0.02     0.13   0.11  -0.03
    61   6     0.21  -0.01  -0.08     0.01   0.00  -0.00     0.00   0.00   0.00
    62   6     0.21   0.01  -0.08     0.01  -0.00  -0.00    -0.00   0.00  -0.00
    63   6    -0.05  -0.07   0.03    -0.00   0.00   0.00     0.00   0.00   0.00
    64   1    -0.28  -0.06   0.15    -0.01   0.00   0.00     0.01   0.00   0.00
    65   1    -0.09  -0.30  -0.09    -0.01  -0.01  -0.00     0.00   0.00   0.00
    66   1    -0.03   0.12   0.12    -0.00   0.01   0.01     0.00  -0.00  -0.00
    67   6    -0.05   0.07   0.03    -0.00  -0.00   0.00    -0.00   0.00  -0.00
    68   1    -0.28   0.06   0.15    -0.01  -0.00   0.00    -0.01   0.00  -0.00
    69   1    -0.03  -0.12   0.12    -0.00  -0.01   0.01    -0.00  -0.00   0.00
    70   1    -0.09   0.30  -0.09    -0.01   0.01  -0.00    -0.00   0.00  -0.00
    71   6    -0.07  -0.01   0.02    -0.00   0.00   0.00     0.01   0.00  -0.00
    72   1     0.03  -0.04  -0.02    -0.00   0.00   0.00    -0.02   0.00   0.00
    73   1    -0.29   0.00   0.12    -0.01   0.00   0.00     0.01   0.00  -0.01
    74   6    -0.07   0.01   0.02    -0.00  -0.00   0.00    -0.01   0.00   0.00
    75   1    -0.29  -0.00   0.12    -0.01  -0.00   0.00    -0.02   0.00   0.01
    76   1     0.03   0.04  -0.02    -0.00  -0.00   0.00     0.02   0.00  -0.00
                     19                     20                     21
                      A                      A                      A
 Frequencies --    334.3438               339.3872               339.8822
 Red. masses --     10.1057                11.9963                11.9978
 Frc consts  --      0.6656                 0.8141                 0.8166
 IR Inten    --      0.0000                 0.0000                 0.0000
  Atom  AN      X      Y      Z        X      Y      Z        X      Y      Z
     1   6    -0.00  -0.03  -0.02    -0.07   0.06   0.00     0.07  -0.09   0.17
     2   6     0.01   0.03   0.02    -0.05  -0.10   0.13     0.03  -0.04   0.13
     3   6    -0.04  -0.02   0.12    -0.05  -0.11   0.16    -0.03  -0.05   0.10
     4   6    -0.06  -0.00   0.12     0.00  -0.08   0.00     0.00  -0.05   0.00
     5   6    -0.09  -0.00  -0.06    -0.00   0.03   0.00     0.00  -0.08   0.00
     6   6    -0.09   0.02  -0.08    -0.05   0.05  -0.05     0.12  -0.11   0.14
     7   6     0.06  -0.08   0.00    -0.09   0.13  -0.03     0.03   0.07   0.06
     8   6     0.05   0.00  -0.01    -0.05   0.08   0.01     0.01   0.24  -0.01
     9   6     0.06   0.09  -0.03    -0.06  -0.07   0.09     0.03   0.13   0.02
    10   6     0.10   0.15  -0.03    -0.06  -0.05   0.09     0.03   0.06  -0.03
    11   6    -0.06  -0.01   0.14    -0.06  -0.10   0.11    -0.01  -0.04   0.02
    12   6    -0.04   0.02   0.12     0.05  -0.11  -0.16     0.03  -0.05  -0.10
    13   6     0.01  -0.03   0.02     0.05  -0.10  -0.13    -0.03  -0.04  -0.13
    14   6    -0.00   0.02  -0.02     0.07   0.06  -0.00    -0.07  -0.09  -0.17
    15   6    -0.09  -0.02  -0.08     0.05   0.05   0.05    -0.12  -0.11  -0.14
    16   6    -0.12  -0.01  -0.10     0.06   0.05   0.05    -0.08  -0.09  -0.06
    17   6    -0.12   0.01  -0.10    -0.06   0.05  -0.05     0.08  -0.09   0.06
    18   6     0.00  -0.06  -0.03    -0.10   0.06  -0.06     0.10  -0.04   0.02
    19   6     0.09  -0.15  -0.02    -0.10   0.08  -0.06     0.02   0.02   0.02
    20   6     0.05  -0.01  -0.02     0.05   0.08  -0.01    -0.02   0.24   0.01
    21   6     0.06  -0.10  -0.04     0.06  -0.07  -0.09    -0.03   0.13  -0.01
    22   6     0.09  -0.15  -0.03     0.06  -0.05  -0.09    -0.03   0.06   0.03
    23   6     0.02  -0.06   0.03     0.10  -0.07  -0.11     0.03   0.00   0.00
    24   6    -0.01  -0.01   0.00    -0.00   0.00  -0.06     0.04  -0.00   0.01
    25   6    -0.01   0.01   0.00     0.00   0.00   0.05    -0.04  -0.00  -0.01
    26   6     0.00   0.06  -0.03     0.10   0.06   0.06    -0.10  -0.04  -0.02
    27   6     0.09   0.15  -0.02     0.10   0.08   0.06    -0.02   0.02  -0.02
    28   6     0.06   0.08   0.00     0.09   0.13   0.03    -0.03   0.07  -0.06
    29   6    -0.06   0.01   0.14     0.06  -0.10  -0.11     0.02  -0.04  -0.03
    30   6     0.06  -0.07  -0.00    -0.09   0.13  -0.03     0.04   0.06   0.06
    31   6     0.10  -0.15  -0.02    -0.10   0.08  -0.05     0.03   0.02   0.02
    32   6     0.01  -0.06  -0.03    -0.10   0.06  -0.06     0.10  -0.04   0.02
    33   6    -0.10   0.01  -0.10    -0.06   0.05  -0.05     0.08  -0.09   0.06
    34   6    -0.08   0.03  -0.08    -0.05   0.05  -0.05     0.12  -0.11   0.14
    35   6     0.01   0.04   0.01    -0.05  -0.10   0.13     0.04  -0.04   0.13
    36   6     0.06   0.10  -0.04    -0.06  -0.07   0.09     0.03   0.13   0.01
    37   6     0.05   0.01  -0.02    -0.05   0.08   0.01     0.02   0.24  -0.01
    38   6     0.05  -0.00  -0.01     0.05   0.08  -0.01    -0.01   0.24   0.01
    39   6     0.06  -0.09  -0.03     0.06  -0.07  -0.09    -0.03   0.13  -0.02
    40   6     0.10  -0.15  -0.03     0.06  -0.05  -0.09    -0.03   0.06   0.03
    41   6     0.01   0.06  -0.03     0.10   0.06   0.06    -0.10  -0.04  -0.02
    42   6    -0.10  -0.01  -0.10     0.06   0.05   0.05    -0.08  -0.09  -0.06
    43   6    -0.08  -0.03  -0.08     0.05   0.05   0.05    -0.12  -0.11  -0.14
    44   6    -0.09  -0.00  -0.06    -0.00   0.03   0.00     0.00  -0.08   0.00
    45   6    -0.06  -0.00   0.11     0.00  -0.08   0.00     0.00  -0.05   0.00
    46   6    -0.05  -0.02   0.12    -0.05  -0.11   0.16    -0.02  -0.05   0.10
    47   6     0.09   0.15  -0.03    -0.06  -0.05   0.09     0.03   0.06  -0.03
    48   6     0.02   0.06   0.03    -0.10  -0.07   0.11    -0.03   0.01  -0.01
    49   6    -0.07  -0.01   0.15    -0.06  -0.10   0.11    -0.01  -0.04   0.02
    50   6    -0.07   0.01   0.15     0.06  -0.10  -0.11     0.01  -0.04  -0.02
    51   6    -0.05   0.02   0.12     0.05  -0.11  -0.16     0.02  -0.05  -0.10
    52   6     0.00  -0.04   0.01     0.05  -0.10  -0.13    -0.04  -0.04  -0.13
    53   6    -0.00   0.01  -0.03     0.07   0.06  -0.00    -0.08  -0.09  -0.17
    54   6     0.06   0.07  -0.00     0.09   0.13   0.03    -0.04   0.06  -0.06
    55   6     0.10   0.15  -0.02     0.10   0.08   0.05    -0.03   0.02  -0.02
    56   6     0.03  -0.06   0.02     0.10  -0.07  -0.11     0.03   0.01   0.01
    57   6     0.03   0.06   0.02    -0.10  -0.07   0.11    -0.03   0.01  -0.01
    58   6    -0.00  -0.01  -0.03    -0.07   0.06   0.00     0.08  -0.09   0.17
    59   6    -0.02  -0.01   0.00    -0.00   0.00  -0.05     0.03  -0.00   0.01
    60   6    -0.01   0.01   0.00     0.00   0.00   0.05    -0.03  -0.00  -0.01
    61   6    -0.12   0.00   0.04     0.00  -0.00  -0.00    -0.00  -0.00  -0.00
    62   6    -0.12  -0.00   0.04    -0.00  -0.00   0.00     0.00  -0.00   0.00
    63   6     0.03   0.01  -0.01    -0.00  -0.00   0.00     0.00  -0.00  -0.00
    64   1     0.15   0.01  -0.05    -0.00  -0.00   0.00    -0.00  -0.00   0.00
    65   1     0.06   0.12   0.05    -0.01  -0.00  -0.00     0.00  -0.00   0.00
    66   1     0.02  -0.09  -0.08    -0.00  -0.00   0.01     0.00   0.00  -0.00
    67   6     0.03  -0.01  -0.01     0.00  -0.00  -0.00    -0.00  -0.00   0.00
    68   1     0.15  -0.01  -0.05     0.00  -0.00  -0.00     0.00  -0.00  -0.00
    69   1     0.02   0.09  -0.08     0.00  -0.00  -0.01    -0.00   0.00   0.00
    70   1     0.06  -0.12   0.05     0.01  -0.00   0.00    -0.00  -0.00  -0.00
    71   6     0.03  -0.01  -0.01    -0.00   0.00   0.00    -0.00  -0.00   0.00
    72   1    -0.01   0.00   0.00     0.01   0.00  -0.00     0.00  -0.00   0.00
    73   1     0.15  -0.01  -0.05    -0.00   0.00   0.00    -0.01  -0.00   0.00
    74   6     0.03   0.01  -0.01     0.00   0.00  -0.00     0.00  -0.00  -0.00
    75   1     0.15   0.01  -0.05     0.00   0.00  -0.00     0.01  -0.00  -0.00
    76   1    -0.01  -0.00   0.00    -0.01   0.00   0.00    -0.00  -0.00  -0.00
                     22                     23                     24
                      A                      A                      A
 Frequencies --    340.5310               345.9516               390.8243
 Red. masses --     11.8307                 4.7878                11.9988
 Frc consts  --      0.8083                 0.3376                 1.0798
 IR Inten    --      0.0000                 0.0000                 0.0000
  Atom  AN      X      Y      Z        X      Y      Z        X      Y      Z
     1   6     0.01  -0.03   0.05     0.04  -0.02   0.02    -0.19  -0.01   0.08
     2   6     0.01  -0.03   0.06     0.03   0.02  -0.03    -0.20   0.01   0.02
     3   6     0.07  -0.01   0.08     0.01   0.01  -0.05    -0.10   0.07  -0.01
     4   6     0.05   0.00   0.23     0.00  -0.00  -0.03     0.00   0.02   0.00
     5   6     0.05   0.00   0.22     0.02   0.00   0.03     0.00   0.00  -0.00
     6   6    -0.03  -0.01   0.10     0.02  -0.01   0.04    -0.10  -0.05   0.06
     7   6    -0.02   0.05  -0.00     0.04  -0.05   0.02    -0.12   0.01   0.08
     8   6    -0.00   0.02   0.01     0.03   0.00  -0.01    -0.08  -0.00   0.02
     9   6     0.00   0.03   0.00     0.02   0.06  -0.04    -0.14  -0.01  -0.01
    10   6     0.03   0.02  -0.07     0.02   0.06  -0.02    -0.08   0.02  -0.08
    11   6     0.16   0.02  -0.12    -0.01   0.00  -0.02    -0.06   0.10  -0.05
    12   6     0.07   0.01   0.08     0.01  -0.01  -0.05     0.10   0.07   0.01
    13   6     0.01   0.03   0.06     0.03  -0.02  -0.03     0.20   0.01  -0.02
    14   6     0.01   0.03   0.06     0.04   0.02   0.02     0.19  -0.01  -0.08
    15   6    -0.03   0.01   0.10     0.02   0.01   0.04     0.10  -0.05  -0.06
    16   6    -0.19  -0.02  -0.04    -0.01   0.00   0.01     0.04  -0.10  -0.07
    17   6    -0.19   0.02  -0.04    -0.01  -0.00   0.01    -0.04  -0.10   0.07
    18   6    -0.14   0.07  -0.06    -0.06  -0.01   0.01    -0.02  -0.06   0.08
    19   6    -0.07   0.05  -0.05     0.02  -0.06  -0.00    -0.05  -0.03   0.11
    20   6    -0.00  -0.02   0.01     0.03   0.01  -0.00     0.08   0.00  -0.02
    21   6     0.00  -0.03   0.00     0.03  -0.05  -0.04     0.14  -0.01   0.02
    22   6     0.03  -0.02  -0.07     0.03  -0.06  -0.02     0.08   0.01   0.08
    23   6     0.12  -0.06  -0.12    -0.04  -0.02  -0.00     0.03   0.05   0.06
    24   6     0.00  -0.00  -0.07    -0.12   0.00   0.02     0.01  -0.01   0.07
    25   6     0.01   0.00  -0.07    -0.12  -0.00   0.02    -0.01  -0.01  -0.07
    26   6    -0.14  -0.07  -0.06    -0.06   0.01   0.01     0.02  -0.06  -0.08
    27   6    -0.07  -0.05  -0.05     0.02   0.06  -0.00     0.05  -0.03  -0.11
    28   6    -0.02  -0.05  -0.00     0.04   0.05   0.02     0.12   0.01  -0.08
    29   6     0.16  -0.02  -0.12    -0.01  -0.00  -0.02     0.06   0.10   0.05
    30   6    -0.02   0.05  -0.00     0.04  -0.06   0.03    -0.12   0.01   0.08
    31   6    -0.07   0.05  -0.05     0.01  -0.06   0.00    -0.05  -0.03   0.11
    32   6    -0.14   0.07  -0.06    -0.07  -0.01   0.01    -0.01  -0.06   0.08
    33   6    -0.19   0.02  -0.05    -0.03  -0.00   0.01    -0.04  -0.11   0.07
    34   6    -0.04  -0.01   0.09     0.02  -0.01   0.05    -0.10  -0.05   0.06
    35   6     0.01  -0.03   0.06     0.03   0.01  -0.02    -0.20   0.01   0.02
    36   6     0.00   0.03   0.00     0.03   0.05  -0.04    -0.14  -0.01  -0.02
    37   6    -0.00   0.02   0.01     0.03  -0.01  -0.00    -0.08   0.00   0.02
    38   6    -0.00  -0.02   0.01     0.03  -0.00  -0.01     0.08  -0.00  -0.02
    39   6     0.00  -0.03   0.00     0.02  -0.06  -0.04     0.14  -0.01   0.01
    40   6     0.03  -0.02  -0.07     0.02  -0.06  -0.02     0.08   0.02   0.08
    41   6    -0.14  -0.07  -0.06    -0.07   0.01   0.01     0.01  -0.06  -0.08
    42   6    -0.19  -0.02  -0.04    -0.03   0.00   0.01     0.04  -0.11  -0.07
    43   6    -0.04   0.01   0.09     0.02   0.01   0.05     0.10  -0.05  -0.06
    44   6     0.05   0.00   0.22     0.02   0.00   0.05     0.00   0.00  -0.00
    45   6     0.04   0.00   0.23     0.01  -0.00  -0.01     0.00   0.02   0.00
    46   6     0.07  -0.01   0.09     0.01   0.01  -0.04    -0.11   0.07  -0.00
    47   6     0.03   0.02  -0.07     0.03   0.06  -0.02    -0.08   0.01  -0.08
    48   6     0.12   0.06  -0.12    -0.04   0.02  -0.00    -0.03   0.05  -0.06
    49   6     0.16   0.02  -0.11     0.00   0.00  -0.02    -0.06   0.10  -0.04
    50   6     0.16  -0.02  -0.11     0.00  -0.00  -0.02     0.06   0.10   0.04
    51   6     0.07   0.01   0.09     0.01  -0.01  -0.04     0.11   0.07   0.00
    52   6     0.01   0.03   0.06     0.03  -0.01  -0.02     0.20   0.01  -0.02
    53   6     0.00   0.03   0.05     0.04   0.03   0.03     0.19  -0.00  -0.07
    54   6    -0.02  -0.05  -0.00     0.04   0.06   0.03     0.12   0.01  -0.08
    55   6    -0.07  -0.05  -0.05     0.01   0.06   0.00     0.05  -0.03  -0.11
    56   6     0.12  -0.06  -0.12    -0.05  -0.02   0.00     0.03   0.05   0.07
    57   6     0.12   0.06  -0.12    -0.05   0.02   0.00    -0.03   0.05  -0.07
    58   6     0.00  -0.02   0.05     0.04  -0.03   0.03    -0.19  -0.00   0.07
    59   6     0.00  -0.00  -0.07    -0.12   0.00   0.02     0.02  -0.01   0.08
    60   6     0.00   0.00  -0.07    -0.12  -0.00   0.02    -0.02  -0.01  -0.07
    61   6    -0.03  -0.00   0.01     0.23   0.00  -0.06     0.00   0.00  -0.00
    62   6    -0.03   0.00   0.01     0.23  -0.00  -0.06    -0.00   0.00   0.00
    63   6     0.01  -0.00  -0.00    -0.05   0.00   0.01     0.00  -0.00   0.00
    64   1     0.04  -0.00  -0.01    -0.29   0.00   0.07    -0.00  -0.00   0.00
    65   1     0.03   0.03   0.02    -0.11  -0.20  -0.11     0.00  -0.00  -0.00
    66   1     0.01  -0.03  -0.03    -0.04   0.21   0.15     0.00  -0.00   0.00
    67   6     0.01   0.00  -0.00    -0.05  -0.00   0.01    -0.00  -0.00  -0.00
    68   1     0.04   0.00  -0.01    -0.29  -0.00   0.07    -0.00  -0.00  -0.00
    69   1     0.01   0.03  -0.03    -0.04  -0.21   0.15    -0.00  -0.00  -0.00
    70   1     0.03  -0.03   0.02    -0.11   0.20  -0.11    -0.00  -0.00   0.00
    71   6     0.01  -0.00  -0.00    -0.07   0.02   0.03     0.00   0.00   0.00
    72   1     0.01  -0.00  -0.00    -0.02   0.01   0.01     0.00  -0.00   0.00
[...]
 0927,-0.00012134,0.00031163,-0.00019499,-0.00020452,0.00000029,0.00036
 602,0.00017167,-0.00024256,-0.00010507,-0.00033848,0.00008737,0.000336
 68,-0.00088038,0.00045053,-0.00038621,-0.00024443,-0.00033041,-0.00008
 272,0.00096284,-0.00264511,-0.00033506,0.00524578,0.00193232,-0.001040
 92,-0.10382793,0.16797771,-0.34324474,0.00170932,0.02952161,0.00691943
 ,-0.01266572,0.00987826,-0.03808919,0.00008874,0.00206245,0.00035194,-
 0.00095790,-0.00146267,-0.00263911,-0.00048367,-0.00154840,-0.00273627
 ,-0.00035229,-0.00043480,0.00065567,-0.00003645,-0.00012158,-0.0000215
 5,0.00004289,0.00000612,-0.00013900,-0.00005254,-0.00009563,-0.0000548
 0,-0.00401003,-0.00601941,-0.00782722,-0.00000123,-0.00208089,0.000126
 50,0.00005591,-0.00027899,-0.00007695,0.17412252,-0.08498604,0.6850607
 9,-0.00000416,0.00001468,0.00001676,0.00002128,0.00002469,0.00002271,0
 .00003460,0.00000240,0.00000451,-0.00000619,-0.00001329,-0.00000105,0.
 00001759,-0.00000578,0.00000053,0.00000826,0.00001928,0.00000871,0.000
 00228,-0.00000608,-0.00002011,0.00001564,0.00000181,0.00001718,-0.0001
 1910,0.00002175,-0.00005404,-0.00006161,0.00002907,-0.00005586,-0.0000
 6295,-0.00002145,-0.00002978,0.00003379,0.00002695,-0.00000076,-0.0000
 0822,-0.00001044,0.00000482,0.00001697,0.00000264,-0.00000286,-0.00000
 441,0.00000274,-0.00000263,0.00000292,-0.00000305,-0.00000300,0.000003
 38,0.00000610,-0.00000448,0.00000141,0.00000383,0.00000244,0.00001139,
 0.00000335,-0.00001143,0.00000958,0.00000419,-0.00001972,0.00000125,-0
 .00000544,0.00001629,0.00001489,0.00000214,0.00000567,0.00000178,0.000
 00229,-0.00000032,-0.00000286,0.00000436,0.00000023,0.00000229,0.00000
 104,-0.00000081,-0.00000111,0.00000237,0.00000047,0.00000464,-0.000001
 99,-0.00000466,-0.00000551,-0.00000028,0.00000609,0.00002105,-0.000014
 51,0.00001404,0.00000348,0.00000533,-0.00000135,-0.00002387,-0.0000344
 2,-0.00000569,-0.00004689,0.00003153,-0.00005595,0.00001132,0.00000301
 ,0.00001610,0.00001851,0.00000794,0.00000199,0.00001296,0.00000346,-0.
 00000247,-0.00000395,-0.00000016,-0.00000190,-0.00000139,-0.00000383,-
 0.00000760,0.00000332,0.00000044,0.00000567,0.00000116,0.00000587,0.00
 000003,-0.00000871,-0.00001706,-0.00000052,-0.00000405,-0.00005217,0.0
 0011079,-0.00002461,0.00001883,0.00000635,0.00002073,0.00000118,-0.000
 01917,-0.00000521,-0.00000282,0.00000981,0.00000555,-0.00000799,-0.000
 00752,-0.00000097,0.00000355,0.00000476,0.00000501,-0.00000076,0.00000
 266,0.00000195,0.00000253,-0.00000044,0.00000185,-0.00000455,0.0000017
 0,0.00000297,0.00000603,0.00000239,0.00000465,0.00001584,-0.00001170,-
 0.00000584,0.00001413,-0.00001059,0.00001551,0.00001878,-0.00003967,-0
 .00007637,0.00001751,0.00007683,-0.00000649,-0.00001708,0.00011011,-0.
 00002540,0.00004663,0.00004449,-0.00008818,-0.00009359,-0.00009627,-0.
 00001609,-0.00001118,0.00000027,-0.00003915,-0.00034447,-0.00001094,0.
 00049772,-0.00042018,-0.00017648,0.00046874,0.00826674,-0.00021140,0.0
 0985024,0.00069432,-0.00439796,-0.00421366,0.00058166,0.00161987,-0.00
 002865,-0.00015104,-0.00049665,0.00011955,0.00014667,0.00092465,-0.000
 28650,-0.00016000,-0.00075441,-0.00005770,0.00055636,0.00004009,-0.000
 15982,0.00011428,-0.00007324,0.00000258,0.00002870,0.00002610,-0.00002
 896,-0.00004309,0.00006177,-0.00055832,-0.00027891,0.00005594,0.000293
 30,0.00006276,-0.00003067,-0.00076284,0.00003739,0.00029201,-0.0309738
 9,0.00470204,-0.00350151,0.02358226,-0.00002342,0.00000623,0.00001364,
 0.00003237,0.00003996,0.00004056,0.00009056,0.00003712,0.00004826,-0.0
 0001071,-0.00004756,-0.00000280,0.00001668,0.00000350,0.00000893,0.000
 01877,0.00002616,0.00001707,-0.00000327,-0.00000927,-0.00002382,0.0000
 6087,-0.00001198,0.00002023,-0.00017520,-0.00001366,-0.00004938,-0.000
 05549,0.00018645,-0.00003576,-0.00013988,-0.00017361,-0.00012530,-0.00
 002354,0.00001265,-0.00001893,-0.00000304,0.00002161,0.00000125,0.0000
 1676,0.00001505,-0.00000369,0.00000399,0.00000003,-0.00001089,0.000003
 14,0.00001096,-0.00001414,0.00000928,0.00000161,-0.00000498,0.00000291
 ,0.00000346,-0.00000035,0.00002336,0.00000448,-0.00002023,0.00005220,-
 0.00002585,-0.00003451,0.00001358,-0.00001277,0.00002184,0.00003597,0.
 00001105,0.00001052,0.00000183,0.00000291,-0.00000046,-0.00000167,0.00
 001994,-0.00000075,-0.00000186,-0.00000366,-0.00000064,-0.00000471,0.0
 0000244,-0.00000551,-0.00000342,-0.00000892,-0.00000749,0.00001400,-0.
 00000164,0.00000100,0.00009951,-0.00001426,0.00008668,0.00004954,0.000
 02454,-0.00004554,-0.00000752,0.00001174,0.00000698,0.00002339,0.00015
 342,-0.00003662,0.00005357,-0.00002196,-0.00010707,-0.00000596,0.00002
 315,0.00001543,0.00001882,0.00001108,-0.00000558,0.00001382,-0.0000028
 1,-0.00000811,-0.00001110,-0.00000062,-0.00000891,-0.00000716,-0.00000
 217,0.00000730,0.00004919,0.00002341,0.00001282,-0.00000261,0.00002332
 ,-0.00000096,-0.00002382,0.00000501,0.00020591,-0.00011233,-0.00020372
 ,0.00018191,0.00004357,0.00004458,-0.00007830,0.00000136,-0.00004902,-
 0.00000802,0.00002839,-0.00000230,-0.00001290,0.00000109,0.00000716,0.
 00000728,-0.00000439,-0.00000842,0.00000529,-0.00000709,0.00000063,0.0
 0000868,0.00001218,0.00001185,0.00001227,0.00001065,-0.00000066,-0.000
 00153,0.00001373,0.00003786,-0.00002512,-0.00003326,0.00000616,-0.0000
 0632,0.00003181,0.00002182,-0.00004773,-0.00014274,-0.00001475,0.00011
 125,-0.00005829,0.00021410,0.00006060,0.00004909,0.00014058,0.00002895
 ,-0.00009356,-0.00001135,-0.00015038,0.00001228,0.00003732,0.00001232,
 0.00012821,-0.00024121,0.00003463,-0.00014582,-0.00042121,-0.00005461,
 0.00127606,-0.02330596,0.00191683,0.00147977,-0.00077297,0.00264697,-0
 .00087214,0.00116990,-0.00189902,0.00012941,0.00107472,0.00047616,0.00
 005903,-0.00000635,-0.00032541,-0.00026104,-0.00001941,-0.00035566,-0.
 00003794,-0.00102404,0.00001361,0.00006319,-0.00010494,0.00027083,-0.0
 0000869,0.00001404,-0.00003778,-0.00000945,0.00000004,-0.00001737,-0.0
 0001603,0.00017360,0.00027897,0.00010640,0.00024954,0.00028949,-0.0000
 3729,0.00004527,0.00008549,0.00575867,-0.30658403,-0.01420712,-0.00751
 206,0.34360723,-0.00001954,-0.00000046,0.00000757,-0.00001714,0.000002
 38,-0.00001358,0.00000562,0.00000131,-0.00000873,-0.00002405,-0.000013
 30,-0.00000241,0.00000796,0.00000394,-0.00000093,-0.00000208,0.0000010
 5,0.00000168,0.00001438,0.00000042,-0.00001326,-0.00000849,0.00000703,
 0.00000764,-0.00004124,0.00001857,-0.00002713,-0.00003678,0.00005341,0
 .00008085,0.00000710,-0.00007801,-0.00002536,0.00002284,0.00002465,0.0
 0000668,0.00000110,-0.00000213,-0.00000087,-0.00000188,0.00000262,-0.0
 0000078,0.00000243,-0.00000153,-0.00000008,0.00000169,0.00000285,-0.00
 000190,0.00000019,-0.00000029,-0.00000128,0.00000191,0.00000292,-0.000
 00450,-0.00000686,-0.00000237,0.00000521,0.00000880,-0.00000626,0.0000
 1128,-0.00001686,-0.00000068,-0.00000580,-0.00000104,0.00000337,-0.000
 00242,-0.00000276,-0.00000375,0.00000338,0.00000023,-0.00000068,0.0000
 0267,-0.00000168,0.00000026,-0.00000121,0.00000037,0.00000067,-0.00000
 292,-0.00000080,0.00000140,0.00000140,-0.00000344,-0.00000150,0.000000
 90,0.00003112,0.00000832,0.00003020,-0.00001194,-0.00000817,0.00000166
 ,-0.00001335,-0.00002438,0.00000709,0.00003204,0.00000809,-0.00004784,
 -0.00002374,0.00004388,0.00004761,-0.00002130,-0.00001853,0.00001337,-
 0.00001057,-0.00000191,0.00000233,0.00000480,0.00000136,0.00000167,-0.
 00000342,-0.00000090,0.00000299,-0.00000450,-0.00000188,-0.00000252,-0
 .00001334,-0.00000438,-0.00000061,0.00000526,0.00001514,-0.00002879,0.
 00005269,0.00007365,-0.00005743,0.00001932,0.00003358,-0.00003299,-0.0
 0000893,-0.00000050,-0.00001838,-0.00000440,0.00001342,0.00000219,-0.0
 0000043,0.00000113,0.00000536,-0.00000013,-0.00000201,-0.00000351,-0.0
 0000313,-0.00000159,-0.00000143,-0.00000372,-0.00000105,0.00000127,-0.
 00000201,0.00000117,-0.00000194,-0.00000061,-0.00000279,-0.00000172,-0
 .00000250,-0.00000671,0.00000573,0.00001471,-0.00000105,-0.00000112,0.
 00001339,-0.00001789,-0.00000034,0.00003314,-0.00000403,-0.00005436,0.
 00004580,-0.00002946,0.00009942,0.00004038,0.00006156,0.00000389,-0.00
 000474,-0.00013114,0.00001928,0.00000556,0.00000700,0.00001069,-0.0000
 3836,0.00014124,-0.00011456,-0.00009823,0.00002305,0.00012477,-0.00118
 762,0.02419239,-0.00072297,-0.00422415,0.00126879,-0.00248102,0.001377
 70,0.00222995,0.00027634,-0.00050340,-0.00031320,-0.00136303,-0.000092
 87,-0.00007636,-0.00019908,0.00019079,-0.00002132,0.00025119,0.0000571
 7,0.00120015,-0.00001346,-0.00001525,0.00023651,-0.00023536,0.00006794
 ,-0.00002544,0.00008700,-0.00000974,-0.00000187,0.00009694,0.00015271,
 -0.00049713,-0.00007703,-0.00003733,0.00028630,0.00027473,0.00029213,-
 0.00008556,0.00007551,-0.00341599,-0.01616359,-0.04320994,0.00812811,0
 .01312414,0.05008687,-0.00001459,-0.00000556,-0.00000338,0.00003452,-0
 .00004592,-0.00002504,-0.00009209,0.00005139,-0.00003146,0.00007409,-0
 .00002013,0.00000713,0.00000580,0.00000918,-0.00000256,0.00002025,0.00
 000094,-0.00000273,0.00001067,0.00000399,-0.00001015,0.00001007,0.0000
 0060,0.00000563,0.00001351,-0.00001734,0.00001358,-0.00006768,0.000131
 49,0.00006270,-0.00018082,-0.00006782,-0.00013037,-0.00009380,0.000006
 30,-0.00003197,0.00003659,0.00005889,-0.00002082,-0.00000372,0.0000078
 3,-0.00000915,0.00001713,0.00000224,-0.00000537,-0.00001117,0.00000754
 ,0.00000109,-0.00000787,-0.00000137,0.00000760,0.00000344,-0.00000263,
 -0.00000795,0.00001074,0.00000231,-0.00000120,0.00000389,-0.00000183,-
 0.00001324,-0.00001302,0.00000320,0.00000247,0.00001042,0.00000062,-0.
 00000471,0.00000196,-0.00000478,0.00000958,0.00000080,-0.00000149,0.00
 000173,-0.00000258,0.00000606,0.00000090,0.00000003,0.00000449,-0.0000
 0562,0.00000110,-0.00000403,-0.00000259,0.00001007,-0.00000418,-0.0000
 0376,0.00001189,-0.00007250,-0.00001126,0.00001531,-0.00000065,-0.0000
 1492,0.00004400,0.00006001,-0.00001573,0.00000239,0.00001434,0.0000126
 9,0.00002568,0.00004161,-0.00009730,-0.00003054,-0.00001788,0.00003282
 ,-0.00000705,0.00000751,0.00000952,-0.00000253,-0.00000305,0.00000085,
 0.00000144,0.00000216,-0.00000334,-0.00000301,-0.00000441,0.00000335,0
 .00006131,0.00002423,0.00002239,-0.00003060,-0.00003952,0.00000846,0.0
 0009825,-0.00011010,-0.00033917,0.00000055,-0.00009804,0.00007467,0.00
 002280,0.00000531,-0.00002750,-0.00001106,-0.00002610,0.00002142,-0.00
 000925,0.00000822,-0.00000604,0.00001067,-0.00000389,-0.00000469,0.000
 00090,-0.00000160,0.00000160,0.00000192,0.00000357,0.00000604,-0.00000
 655,0.00000421,-0.00000138,-0.00000410,0.00000174,-0.00000925,0.000007
 85,-0.00000326,0.00000242,0.00000274,-0.00000305,0.00000460,-0.0000114
 4,0.00001542,0.00001098,-0.00001432,-0.00000406,-0.00002886,0.00002414
 ,0.00001574,-0.00004547,0.00003417,-0.00006614,-0.00000848,-0.00048522
 ,0.00011993,0.00028863,0.00000518,0.00001346,-0.00000893,-0.00017996,0
 .00026880,0.00029633,-0.00245457,-0.00067807,0.00168687,-0.00426594,-0
 .00223410,-0.00939434,-0.00420293,-0.00087637,0.00099460,0.01058161,0.
 00117117,-0.00423227,0.00001153,0.00021724,0.00012071,-0.00061463,-0.0
 0082071,-0.00256404,0.00073968,0.00069394,0.00188921,-0.00014286,-0.00
 003958,0.00006958,0.00005397,-0.00000272,0.00003020,0.00002676,-0.0000
 1391,-0.00002177,-0.00002417,-0.00005338,0.00009782,0.00058741,-0.0000
 8627,-0.00000165,0.00079354,0.00010479,0.00024311,0.00029329,-0.000106
 52,-0.00003717,-0.04215791,-0.02398393,-0.05515848,0.00257531,-0.00005
 251,-0.00069905,0.03884657,0.00002331,0.00000174,-0.00000840,0.0000172
 7,-0.00002228,-0.00001288,-0.00000032,-0.00003514,0.00000275,0.0000069
 5,0.00003598,0.00000295,-0.00000467,-0.00000522,-0.00000240,-0.0000107
 9,-0.00001166,-0.00000054,-0.00001978,0.00000211,0.00001644,-0.0000084
 4,0.00000457,-0.00000779,0.00001130,-0.00000669,0.00002896,0.00004135,
 -0.00012660,-0.00011487,0.00005806,0.00015211,0.00011306,-0.00002448,-
 0.00005307,-0.00000156,0.00000345,0.00000059,-0.00000515,-0.00001074,-
 0.00000348,0.00000656,0.00000076,-0.00000590,0.00000027,-0.00000143,-0
 .00000301,0.00000284,0.00000265,0.00000061,-0.00000077,-0.00000517,-0.
 00000157,0.00000347,0.00000126,-0.00000097,0.00000213,-0.00001651,0.00
 000904,0.00000532,0.00001288,-0.00000073,0.00000032,-0.00000098,-0.000
 00250,0.00000122,0.00000648,0.00000187,-0.00000119,0.00000065,0.000001
 67,-0.00000135,-0.00000010,-0.00000040,0.00000068,0.00000060,-0.000001
 16,0.00000183,-0.00000014,-0.00000228,-0.00000038,0.00000519,0.0000028
 8,-0.00000798,-0.00005645,0.00007791,-0.00006746,-0.00000554,-0.000001
 94,0.00001004,0.00001549,0.00001453,-0.00000250,-0.00003703,-0.0000464
 6,0.00004379,0.00001283,-0.00001014,-0.00001618,0.00002553,0.00001206,
 -0.00002895,-0.00000072,0.00000066,-0.00000020,-0.00000156,-0.00000040
 ,0.00000445,0.00000733,0.00000129,-0.00000109,0.00000839,0.00000453,0.
 00000087,0.00000159,0.00000048,-0.00000646,-0.00001549,-0.00006188,0.0
 0003999,0.00003122,-0.00012845,-0.00001337,-0.00001860,-0.00002266,0.0
 0001641,-0.00001494,-0.00000290,0.00003202,-0.00000184,0.00000535,0.00
 000007,0.00000430,0.00000059,-0.00000487,-0.00000040,0.00000010,0.0000
 0103,0.00000033,0.00000091,0.00000035,-0.00000134,0.00000070,0.0000039
 1,0.00000357,0.00000103,0.00000123,0.00000238,0.00000174,0.00000152,0.
 00000195,-0.00000034,-0.00000403,-0.00000346,-0.00000214,0.00000084,-0
 .00000769,-0.00000729,0.00002121,-0.00002889,0.00000134,0.00003598,-0.
 00003647,0.00002928,-0.00004132,-0.00005708,-0.00007233,0.00000445,0.0
 0011608,0.00001879,-0.00003028,0.00000192,-0.00000963,-0.00001004,-0.0
 0016752,-0.00000342,0.00022044,-0.00021656,0.00022223,-0.00002001,0.00
 265829,0.00739817,0.01152405,-0.00041699,0.00035264,-0.00054393,0.0012
 1890,-0.00079694,0.00195045,0.00004365,0.00022684,0.00009675,0.0000068
 0,0.00026213,0.00024476,0.00017673,0.00040502,0.00046656,-0.00000097,-
 0.00006089,-0.00011676,0.00000714,0.00002246,0.00001295,-0.00004848,0.
 00004047,-0.00006258,0.00001226,0.00004075,-0.00009815,0.00055683,-0.0
 0227136,0.00208061,-0.00010449,-0.00376774,-0.00051061,-0.00006275,0.0
 0024965,-0.00028628,-0.02385428,-0.08872166,-0.09833595,-0.00633150,-0
 .01441663,-0.02554383,0.02648893,0.10108299,0.00004500,-0.00000988,-0.
 00000712,-0.00006674,0.00006523,0.00001679,-0.00000770,-0.00001920,-0.
 00005296,-0.00005598,0.00001182,-0.00000600,-0.00004575,-0.00000440,0.
 00001639,-0.00002327,-0.00001279,-0.00001210,0.00001133,0.00001028,0.0
 0001415,-0.00005916,0.00000896,0.00002679,0.00007663,0.00000611,0.0000
 0268,0.00003090,-0.00010085,-0.00013181,0.00011191,0.00019141,0.000174
 84,0.00006471,0.00001841,-0.00001517,-0.00002953,-0.00008973,0.0000289
 2,0.00000826,0.00000712,-0.00000938,-0.00001109,0.00001146,0.00000108,
 0.00000341,-0.00001685,0.00001088,0.00000519,-0.00000093,-0.00000666,-
 0.00000662,0.00000173,0.00001153,-0.00001930,-0.00000847,0.00000909,-0
 .00006887,0.00001908,0.00001249,0.00003371,0.00000715,-0.00001629,-0.0
 0001725,0.00000067,0.00000211,-0.00000244,0.00000310,-0.00000810,-0.00
 000218,-0.00000873,-0.00000583,0.00000715,-0.00000893,-0.00000461,0.00
 000692,-0.00000293,0.00000600,-0.00000325,0.00001739,0.00001406,-0.000
 02520,-0.00000366,0.00002265,-0.00004490,-0.00008922,0.00001723,-0.000
 05377,-0.00001899,0.00004398,-0.00002690,-0.00004640,0.00006936,0.0000
 1997,0.00000742,-0.00015431,-0.00004591,-0.00009020,0.00013802,0.00004
 442,0.00004822,-0.00002564,0.00002302,-0.00000367,-0.00000517,-0.00001
 760,-0.00000492,-0.00001582,-0.00002204,-0.00001286,0.00000961,-0.0000
 1411,-0.00000683,0.00001358,-0.00007615,-0.00003077,-0.00004204,0.0000
 0121,-0.00000138,-0.00008186,0.00000157,-0.00007927,-0.00025025,0.0000
 0956,0.00007593,0.00002477,-0.00004681,-0.00003078,0.00007796,-0.00000
 607,0.00000913,0.00000087,-0.00001042,-0.00001045,0.00000617,-0.000011
 43,0.00001730,0.00000576,-0.00000237,0.00000915,-0.00001035,0.00000325
 ,-0.00000207,-0.00000943,-0.00000041,-0.00001186,-0.00000299,0.0000014
 3,-0.00000347,0.00001072,-0.00001007,-0.00000660,0.00000944,0.00002585
 ,0.00000428,-0.00001690,-0.00004846,0.00002067,0.00003023,0.00004000,0
 .00001000,-0.00003140,-0.00007914,0.00002092,0.00003779,0.00003186,0.0
 0006474,0.00012886,0.00011126,-0.00019933,0.00032445,-0.00002310,-0.00
 004558,0.00001044,0.00032781,0.00033225,-0.00016351,0.00115303,0.00012
 151,-0.00072597,-0.00639856,-0.01077440,-0.02589256,0.00116863,-0.0009
 8409,-0.00025580,-0.00427266,0.00286984,-0.00193766,0.00011504,0.00068
 729,0.00038749,-0.00023476,-0.00000268,0.00003005,-0.00029920,-0.00047
 335,-0.00150666,0.00011996,-0.00002889,0.00024260,0.00002904,0.0000698
 2,0.00013381,0.00015487,-0.00016776,0.00010490,-0.00009554,-0.00014894
 ,0.00014898,-0.00023866,-0.00055860,0.00012688,0.00024299,0.00050953,0
 .00154286,-0.00003086,-0.00028944,0.00027464,-0.05694010,-0.09746996,-
 0.25309572,-0.00153732,-0.00228440,-0.00287475,0.06700180,0.10890658,0
 .28305289\\-0.00000004,-0.00000005,-0.00000001,0.00000011,0.00000012,0
 .00000007,-0.00000002,0.00000025,-0.00000010,0.,-0.00000016,-0.0000000
 8,-0.00000003,0.,-0.00000003,-0.00000052,0.00000005,-0.00000027,0.0000
 0010,0.00000006,-0.00000009,-0.00000008,0.00000008,0.00000043,0.000000
 03,-0.00000002,-0.00000027,0.00000048,-0.00000018,0.00000052,-0.000018
 23,-0.00000007,-0.00000357,0.00000018,0.00000003,-0.00000006,0.0000001
 5,-0.00000029,0.00000017,-0.00000004,0.00000009,-0.00000011,0.00000065
 ,-0.00000023,0.00000007,-0.00001721,0.,-0.00000345,0.00001706,-0.00000
 013,0.00000341,-0.00000078,-0.00000003,-0.00000018,-0.00000012,-0.0000
 0004,0.00000002,-0.00000002,-0.00000007,-0.00000032,-0.00000015,-0.000
 00014,-0.00000011,0.00000027,0.00000013,0.00000019,0.00000238,0.000000
 06,0.00000024,-0.00001349,-0.00000013,-0.00000241,0.00001327,0.0000000
 3,0.00000238,0.00000069,-0.00000017,0.00000009,0.00000002,-0.00000010,
 -0.00000010,0.00000003,-0.00000015,0.00000011,0.00001826,-0.00000045,0
 .00000353,0.,-0.00000007,-0.00000003,-0.00000002,0.00000038,0.00000022
 ,-0.00000069,-0.00000002,-0.00000027,-0.00001615,-0.00000121,-0.000004
 46,0.00000048,0.00000029,0.00000056,0.00000001,0.00000006,0.00000032,-
 0.00000007,-0.00000017,0.,0.00000019,-0.00000010,-0.00000005,-0.000000
 05,-0.00000004,-0.00000006,0.00000007,0.00000012,-0.00000014,-0.000000
 27,0.,-0.00000017,-0.00000168,-0.00000064,0.00000145,0.00001591,0.0000
 0358,0.00000249,-0.00000118,-0.00000024,-0.00000072,0.00000087,0.00000
 015,0.00000006,0.00000024,-0.00000001,0.00000021,-0.00000001,-0.000000
 13,0.00000008,0.,-0.00000009,0.00000008,-0.00000251,-0.00000019,-0.000
 00015,0.00001852,0.00000002,0.00000359,-0.00001852,-0.00000005,-0.0000
 0323,0.00000014,0.00000039,-0.00000001,0.00000011,-0.00000032,0.000000
 05,-0.00000073,-0.00000039,0.00000001,-0.00000043,0.00000013,-0.000000
 18,0.00000007,-0.00000037,-0.00000094,-0.00000358,0.00000022,-0.000000
 64,0.00000183,0.00000111,0.00000048,0.00000016,-0.00000020,-0.00000007
 ,0.00001342,-0.00000165,0.00000246,-0.00001012,0.00000015,-0.00000140,
 0.00000451,-0.00000211,0.00000782,-0.00000287,0.00000030,-0.00000186,0
 .00000114,0.,0.00000019,-0.00000003,0.00000014,0.00000010,-0.00000014,
 -0.00000040,-0.00000015,0.,0.00000010,0.00000015,-0.00000032,-0.000002
 55,0.00000254,0.00000080,-0.00000035,-0.00000038,0.00000061,-0.0000005
 9,0.00000047,0.00000125,0.00000321,-0.00000289,-0.00000255,-0.00000022
 ,-0.00000152,0.00000121,-0.00000050,-0.00000026,0.,-0.00000007,-0.0000
 0002,-0.00000171,0.00000339,-0.00000190,-0.00000024,0.00000035,-0.0000
 0010,-0.00000060,0.00000009,-0.00000178\\\@


 THE RARE EARTHS PERPLEX US IN OUR RESEARCHES,
 BAFFLE US IN OUR SPECULATIONS, AND HAUNT US IN OUR
 VERY DREAMS.  THEY STRETCH LIKE AN UNKNOWN BEFORE US,
 MOCKING, MYSTIFYING, AND MURMURING STRANGE REVELATIONS
 AND POSSIBILITIES.  -- SIR WILLIAM CROOKE, 1832-1919
 Job cpu time:       0 days  0 hours  0 minutes  1.5 seconds.
 Elapsed time:       0 days  0 hours  8 minutes 42.0 seconds.
 File lengths (MBytes):  RWF=     22 Int=      0 D2E=      0 Chk=      3 Scr=      2
 Normal termination of Gaussian 16 at Tue May 27 14:49:26 2025.
