 Entering Gaussian System, Link 0=/mlatom/software/Gaussian/g16-avx2/g16
 Input=gaussian.com
 Output=gaussian.log
 Initial command:
 /mlatom/software/Gaussian/g16-avx2/l1.exe "/mlatom/home/huangyh/projects/delta_learning/paper/revision1/Starting_from_ub3lyp_d4/c60/xtb/ts/Gau-136592.inp" -scrdir="/mlatom/home/huangyh/projects/delta_learning/paper/revision1/Starting_from_ub3lyp_d4/c60/xtb/ts/"
 Entering Link 1 = /mlatom/software/Gaussian/g16-avx2/l1.exe PID=    136593.
  
 Copyright (c) 1988,1990,1992,1993,1995,1998,2003,2009,2016,
            Gaussian, Inc.  All Rights Reserved.
  
 This is part of the Gaussian(R) 16 program.  It is based on
 the Gaussian(R) 09 system (copyright 2009, Gaussian, Inc.),
 the Gaussian(R) 03 system (copyright 2003, Gaussian, Inc.),
 the Gaussian(R) 98 system (copyright 1998, Gaussian, Inc.),
 the Gaussian(R) 94 system (copyright 1995, Gaussian, Inc.),
 the Gaussian 92(TM) system (copyright 1992, Gaussian, Inc.),
 the Gaussian 90(TM) system (copyright 1990, Gaussian, Inc.),
 the Gaussian 88(TM) system (copyright 1988, Gaussian, Inc.),
 the Gaussian 86(TM) system (copyright 1986, Carnegie Mellon
 University), and the Gaussian 82(TM) system (copyright 1983,
 Carnegie Mellon University). Gaussian is a federally registered
 trademark of Gaussian, Inc.
  
 This software contains proprietary and confidential information,
 including trade secrets, belonging to Gaussian, Inc.
  
 This software is provided under written license and may be
 used, copied, transmitted, or stored only in accord with that
 written license.
  
 The following legend is applicable only to US Government
 contracts under FAR:
  
                    RESTRICTED RIGHTS LEGEND
  
 Use, reproduction and disclosure by the US Government is
 subject to restrictions as set forth in subparagraphs (a)
 and (c) of the Commercial Computer Software - Restricted
 Rights clause in FAR 52.227-19.
  
 Gaussian, Inc.
 340 Quinnipiac St., Bldg. 40, Wallingford CT 06492
  
  
 ---------------------------------------------------------------
 Warning -- This program may not be used in any manner that
 competes with the business of Gaussian, Inc. or will provide
 assistance to any competitor of Gaussian, Inc.  The licensee
 of this program is prohibited from giving any competitor of
 Gaussian, Inc. access to this program.  By using this program,
 the user acknowledges that Gaussian, Inc. is engaged in the
 business of creating and licensing software in the field of
 computational chemistry and represents and warrants to the
 licensee that it is not a competitor of Gaussian, Inc. and that
 it will not use this program in any manner prohibited above.
 ---------------------------------------------------------------
  

 Cite this work as:
 Gaussian 16, Revision A.03,
 M. J. Frisch, G. W. Trucks, H. B. Schlegel, G. E. Scuseria, 
 M. A. Robb, J. R. Cheeseman, G. Scalmani, V. Barone, 
 G. A. Petersson, H. Nakatsuji, X. Li, M. Caricato, A. V. Marenich, 
 J. Bloino, B. G. Janesko, R. Gomperts, B. Mennucci, H. P. Hratchian, 
 J. V. Ortiz, A. F. Izmaylov, J. L. Sonnenberg, D. Williams-Young, 
 F. Ding, F. Lipparini, F. Egidi, J. Goings, B. Peng, A. Petrone, 
 T. Henderson, D. Ranasinghe, V. G. Zakrzewski, J. Gao, N. Rega, 
 G. Zheng, W. Liang, M. Hada, M. Ehara, K. Toyota, R. Fukuda, 
 J. Hasegawa, M. Ishida, T. Nakajima, Y. Honda, O. Kitao, H. Nakai, 
 T. Vreven, K. Throssell, J. A. Montgomery, Jr., J. E. Peralta, 
 F. Ogliaro, M. J. Bearpark, J. J. Heyd, E. N. Brothers, K. N. Kudin, 
 V. N. Staroverov, T. A. Keith, R. Kobayashi, J. Normand, 
 K. Raghavachari, A. P. Rendell, J. C. Burant, S. S. Iyengar, 
 J. Tomasi, M. Cossi, J. M. Millam, M. Klene, C. Adamo, R. Cammi, 
 J. W. Ochterski, R. L. Martin, K. Morokuma, O. Farkas, 
 J. B. Foresman, and D. J. Fox, Gaussian, Inc., Wallingford CT, 2016.
 
 ******************************************
 Gaussian 16:  ES64L-G16RevA.03 25-Dec-2016
                27-May-2025 
 ******************************************
 %nproc=1
 Will use up to    1 processors via shared memory.
 ----------------------------------------------------------------------
 #p Freq external='/mlatom/software/miniconda3/bin/python /mlatom/softw
 are/mlatom_xacs/mlatom/interfaces/gaussian_interface.py model_predict_
 kwargs'
 ----------------------------------------------------------------------
 1/10=4,18=10,30=1,38=1/1,3;
 2/12=2,17=6,18=5,40=1/2;
 3/11=9,25=1,30=1,41=9900000,43=2,71=2,140=1/1;
 4/20=17,22=2,24=3,113=1,114=1/2;
 6/7=2,8=2,9=2,10=2/1;
 7/8=1,25=1,44=-1/16;
 1/10=4,18=10,30=1/3;
 99//99;
 Leave Link    1 at Tue May 27 14:28:19 2025, MaxMem=           0 cpu:               0.0 elap:               0.0
 (Enter /mlatom/software/Gaussian/g16-avx2/l101.exe)
 ------------------------------------
 2a332737-500e-496a-afbf-8eedd5121e8c
 ------------------------------------
 Symbolic Z-matrix:
 Charge =  0 Multiplicity = 1
 C                     1.95277  -2.28977  -2.36183 
 C                     0.54409  -2.29022  -2.66483 
 C                    -0.0466   -1.16579  -3.22709 
 C                     0.75184   0.00011  -3.51041 
 C                     2.10922   0.00006  -3.22049 
 C                     2.72106  -1.16624  -2.63444 
 C                     2.14327  -3.01064  -1.1278 
 C                     0.85169  -3.45561  -0.66844 
 C                    -0.13593  -3.00783  -1.61882 
 C                    -1.37764  -2.57207  -1.17554 
 C                    -1.3381   -0.72235  -2.77045 
 C                    -0.04651   1.16604  -3.22698 
 C                     0.54425   2.29039  -2.66464 
 C                     1.95295   2.28983  -2.36166 
 C                     2.72117   1.16629  -2.63437 
 C                     3.70912   0.72086  -1.68457 
 C                     3.70898  -0.72093  -1.68458 
 C                     3.89246  -1.41497  -0.49648 
 C                     3.09477  -2.58145  -0.21282 
 C                     0.55961  -3.45596   0.68808 
 C                     1.54743  -3.01097   1.63853 
 C                     2.79116  -2.58151   1.19649 
 C                     3.40119  -1.415     1.78349 
 C                     4.08206  -0.6942    0.73734 
 C                     4.08207   0.6939    0.73736 
 C                     3.89255   1.41478  -0.49639 
 C                     3.09496   2.58131  -0.21264 
 C                     2.14348   3.01062  -1.12759 
 C                    -1.33802   0.72267  -2.77036 
 C                    -0.73146   3.00817   1.14769 
 C                    -1.68046   2.57194   0.23225 
 C                    -2.48065   1.4104    0.51265 
 C                    -2.30133   0.72295   1.70128 
 C                    -1.31276   1.16595   2.64951 
 C                     0.86574   2.28981   2.68472 
 C                     1.54763   3.01079   1.63874 
 C                     0.55984   3.45591   0.68832 
 C                     0.85193   3.45563  -0.6682 
 C                    -0.13572   3.00797  -1.6186 
 C                    -1.37747   2.57226  -1.17534 
 C                    -2.48067  -1.4102    0.51254 
 C                    -2.30137  -0.72287   1.70124 
 C                    -1.31283  -1.166     2.64944 
 C                    -0.70181  -0.00006   3.23648 
 C                     0.65443  -0.00012   3.53134 
 C                     1.45342   1.16617   3.24941 
 C                     2.79134   2.58129   1.19666 
 C                     3.40129   1.41469   1.78358 
 C                     2.74477   0.72071   2.79074 
 C                     2.74472  -0.72104   2.79071 
 C                     1.45334  -1.16645   3.24934 
 C                     0.86558  -2.29002   2.68456 
 C                    -0.54284  -2.29071   2.38053 
 C                    -0.73166  -3.00816   1.14748 
 C                    -1.6806   -2.57181   0.23206 
 C                    -1.99209   1.41069  -1.76119 
 C                    -1.99219  -1.41041  -1.76131 
 C                    -0.5427    2.29062   2.38069 
 C                    -2.72507   0.70402  -0.72942 
 C                    -2.72493  -0.7037   -0.72944 
 C                    -5.51671  -0.72428  -0.20997 
 C                    -5.5165    0.7243   -0.21024 
 C                    -5.96104  -1.43444   1.03355 
 H                    -5.90408  -2.51136   0.89887 
 H                    -5.33077  -1.16134   1.87928 
 H                    -6.98775  -1.17094   1.28152 
 C                    -5.96068   1.43505   1.03299 
 H                    -6.98754   1.17207   1.28089 
 H                    -5.33066   1.16195   1.87889 
 H                    -5.90325   2.5119    0.89796 
 C                    -4.97299   1.43205  -1.22071 
 H                    -4.75302   1.0109   -2.18389 
 H                    -4.90371   2.50592  -1.16105 
 C                    -4.97369  -1.43259  -1.22027 
 H                    -4.90465  -2.50645  -1.1602 
 H                    -4.75342  -1.01183  -2.18356 
 
 ITRead=  0  0  0  0  0  0  0  0  0  0  0  0  0  0  0  0  0  0  0  0
 ITRead=  0  0  0  0  0  0  0  0  0  0  0  0  0  0  0  0  0  0  0  0
 ITRead=  0  0  0  0  0  0  0  0  0  0  0  0  0  0  0  0  0  0  0  0
 ITRead=  0  0  0  0  0  0  0  0  0  0  0  0  0  0  0  0
 MicOpt= -1 -1 -1 -1 -1 -1 -1 -1 -1 -1 -1 -1 -1 -1 -1 -1 -1 -1 -1 -1
 MicOpt= -1 -1 -1 -1 -1 -1 -1 -1 -1 -1 -1 -1 -1 -1 -1 -1 -1 -1 -1 -1
 MicOpt= -1 -1 -1 -1 -1 -1 -1 -1 -1 -1 -1 -1 -1 -1 -1 -1 -1 -1 -1 -1
 MicOpt= -1 -1 -1 -1 -1 -1 -1 -1 -1 -1 -1 -1 -1 -1 -1 -1
 NAtoms=     76 NQM=       76 NQMF=       0 NMMI=      0 NMMIF=      0
                NMic=       0 NMicF=      0.
                    Isotopes and Nuclear Properties:
 (Nuclear quadrupole moments (NQMom) in fm**2, nuclear magnetic moments (NMagM)
  in nuclear magnetons)

  Atom         1           2           3           4           5           6           7           8           9          10
 IAtWgt=          12          12          12          12          12          12          12          12          12          12
 AtmWgt=  12.0000000  12.0000000  12.0000000  12.0000000  12.0000000  12.0000000  12.0000000  12.0000000  12.0000000  12.0000000
 NucSpn=           0           0           0           0           0           0           0           0           0           0
 AtZEff=  -0.0000000  -0.0000000  -0.0000000  -0.0000000  -0.0000000  -0.0000000  -0.0000000  -0.0000000  -0.0000000  -0.0000000
 NQMom=    0.0000000   0.0000000   0.0000000   0.0000000   0.0000000   0.0000000   0.0000000   0.0000000   0.0000000   0.0000000
 NMagM=    0.0000000   0.0000000   0.0000000   0.0000000   0.0000000   0.0000000   0.0000000   0.0000000   0.0000000   0.0000000
 AtZNuc=   6.0000000   6.0000000   6.0000000   6.0000000   6.0000000   6.0000000   6.0000000   6.0000000   6.0000000   6.0000000

  Atom        11          12          13          14          15          16          17          18          19          20
 IAtWgt=          12          12          12          12          12          12          12          12          12          12
 AtmWgt=  12.0000000  12.0000000  12.0000000  12.0000000  12.0000000  12.0000000  12.0000000  12.0000000  12.0000000  12.0000000
 NucSpn=           0           0           0           0           0           0           0           0           0           0
 AtZEff=  -0.0000000  -0.0000000  -0.0000000  -0.0000000  -0.0000000  -0.0000000  -0.0000000  -0.0000000  -0.0000000  -0.0000000
 NQMom=    0.0000000   0.0000000   0.0000000   0.0000000   0.0000000   0.0000000   0.0000000   0.0000000   0.0000000   0.0000000
 NMagM=    0.0000000   0.0000000   0.0000000   0.0000000   0.0000000   0.0000000   0.0000000   0.0000000   0.0000000   0.0000000
 AtZNuc=   6.0000000   6.0000000   6.0000000   6.0000000   6.0000000   6.0000000   6.0000000   6.0000000   6.0000000   6.0000000

  Atom        21          22          23          24          25          26          27          28          29          30
 IAtWgt=          12          12          12          12          12          12          12          12          12          12
 AtmWgt=  12.0000000  12.0000000  12.0000000  12.0000000  12.0000000  12.0000000  12.0000000  12.0000000  12.0000000  12.0000000
 NucSpn=           0           0           0           0           0           0           0           0           0           0
 AtZEff=  -0.0000000  -0.0000000  -0.0000000  -0.0000000  -0.0000000  -0.0000000  -0.0000000  -0.0000000  -0.0000000  -0.0000000
 NQMom=    0.0000000   0.0000000   0.0000000   0.0000000   0.0000000   0.0000000   0.0000000   0.0000000   0.0000000   0.0000000
 NMagM=    0.0000000   0.0000000   0.0000000   0.0000000   0.0000000   0.0000000   0.0000000   0.0000000   0.0000000   0.0000000
 AtZNuc=   6.0000000   6.0000000   6.0000000   6.0000000   6.0000000   6.0000000   6.0000000   6.0000000   6.0000000   6.0000000

  Atom        31          32          33          34          35          36          37          38          39          40
 IAtWgt=          12          12          12          12          12          12          12          12          12          12
 AtmWgt=  12.0000000  12.0000000  12.0000000  12.0000000  12.0000000  12.0000000  12.0000000  12.0000000  12.0000000  12.0000000
 NucSpn=           0           0           0           0           0           0           0           0           0           0
 AtZEff=  -0.0000000  -0.0000000  -0.0000000  -0.0000000  -0.0000000  -0.0000000  -0.0000000  -0.0000000  -0.0000000  -0.0000000
 NQMom=    0.0000000   0.0000000   0.0000000   0.0000000   0.0000000   0.0000000   0.0000000   0.0000000   0.0000000   0.0000000
 NMagM=    0.0000000   0.0000000   0.0000000   0.0000000   0.0000000   0.0000000   0.0000000   0.0000000   0.0000000   0.0000000
 AtZNuc=   6.0000000   6.0000000   6.0000000   6.0000000   6.0000000   6.0000000   6.0000000   6.0000000   6.0000000   6.0000000

  Atom        41          42          43          44          45          46          47          48          49          50
 IAtWgt=          12          12          12          12          12          12          12          12          12          12
 AtmWgt=  12.0000000  12.0000000  12.0000000  12.0000000  12.0000000  12.0000000  12.0000000  12.0000000  12.0000000  12.0000000
 NucSpn=           0           0           0           0           0           0           0           0           0           0
 AtZEff=  -0.0000000  -0.0000000  -0.0000000  -0.0000000  -0.0000000  -0.0000000  -0.0000000  -0.0000000  -0.0000000  -0.0000000
 NQMom=    0.0000000   0.0000000   0.0000000   0.0000000   0.0000000   0.0000000   0.0000000   0.0000000   0.0000000   0.0000000
 NMagM=    0.0000000   0.0000000   0.0000000   0.0000000   0.0000000   0.0000000   0.0000000   0.0000000   0.0000000   0.0000000
 AtZNuc=   6.0000000   6.0000000   6.0000000   6.0000000   6.0000000   6.0000000   6.0000000   6.0000000   6.0000000   6.0000000

  Atom        51          52          53          54          55          56          57          58          59          60
 IAtWgt=          12          12          12          12          12          12          12          12          12          12
 AtmWgt=  12.0000000  12.0000000  12.0000000  12.0000000  12.0000000  12.0000000  12.0000000  12.0000000  12.0000000  12.0000000
 NucSpn=           0           0           0           0           0           0           0           0           0           0
 AtZEff=  -0.0000000  -0.0000000  -0.0000000  -0.0000000  -0.0000000  -0.0000000  -0.0000000  -0.0000000  -0.0000000  -0.0000000
 NQMom=    0.0000000   0.0000000   0.0000000   0.0000000   0.0000000   0.0000000   0.0000000   0.0000000   0.0000000   0.0000000
 NMagM=    0.0000000   0.0000000   0.0000000   0.0000000   0.0000000   0.0000000   0.0000000   0.0000000   0.0000000   0.0000000
 AtZNuc=   6.0000000   6.0000000   6.0000000   6.0000000   6.0000000   6.0000000   6.0000000   6.0000000   6.0000000   6.0000000

  Atom        61          62          63          64          65          66          67          68          69          70
 IAtWgt=          12          12          12           1           1           1          12           1           1           1
 AtmWgt=  12.0000000  12.0000000  12.0000000   1.0078250   1.0078250   1.0078250  12.0000000   1.0078250   1.0078250   1.0078250
 NucSpn=           0           0           0           1           1           1           0           1           1           1
 AtZEff=  -0.0000000  -0.0000000  -0.0000000  -0.0000000  -0.0000000  -0.0000000  -0.0000000  -0.0000000  -0.0000000  -0.0000000
 NQMom=    0.0000000   0.0000000   0.0000000   0.0000000   0.0000000   0.0000000   0.0000000   0.0000000   0.0000000   0.0000000
 NMagM=    0.0000000   0.0000000   0.0000000   2.7928460   2.7928460   2.7928460   0.0000000   2.7928460   2.7928460   2.7928460
 AtZNuc=   6.0000000   6.0000000   6.0000000   1.0000000   1.0000000   1.0000000   6.0000000   1.0000000   1.0000000   1.0000000

  Atom        71          72          73          74          75          76
 IAtWgt=          12           1           1          12           1           1
 AtmWgt=  12.0000000   1.0078250   1.0078250  12.0000000   1.0078250   1.0078250
 NucSpn=           0           1           1           0           1           1
 AtZEff=  -0.0000000  -0.0000000  -0.0000000  -0.0000000  -0.0000000  -0.0000000
 NQMom=    0.0000000   0.0000000   0.0000000   0.0000000   0.0000000   0.0000000
 NMagM=    0.0000000   2.7928460   2.7928460   0.0000000   2.7928460   2.7928460
 AtZNuc=   6.0000000   1.0000000   1.0000000   6.0000000   1.0000000   1.0000000
 Leave Link  101 at Tue May 27 14:28:19 2025, MaxMem=   104857600 cpu:               0.1 elap:               0.2
 (Enter /mlatom/software/Gaussian/g16-avx2/l103.exe)

 GradGradGradGradGradGradGradGradGradGradGradGradGradGradGradGradGradGrad
 Berny optimization.
 Initialization pass.
 Trust Radius=3.00D-01 FncErr=1.00D-07 GrdErr=1.00D-07 EigMax=2.50D+02 EigMin=1.00D-04
 Number of steps in this run=      2 maximum allowed number of steps=      2.
 GradGradGradGradGradGradGradGradGradGradGradGradGradGradGradGradGradGrad

 Leave Link  103 at Tue May 27 14:28:19 2025, MaxMem=   104857600 cpu:               0.0 elap:               0.1
 (Enter /mlatom/software/Gaussian/g16-avx2/l202.exe)
 Stoichiometry    C66H10
 Framework group  C1[X(C66H10)]
 Deg. of freedom   222
 Full point group                 C1      NOp   1
 Largest Abelian subgroup         C1      NOp   1
 Largest concise Abelian subgroup C1      NOp   1
                         Standard orientation:                         
 ---------------------------------------------------------------------
 Center     Atomic      Atomic             Coordinates (Angstroms)
 Number     Number       Type             X           Y           Z
 ---------------------------------------------------------------------
      1          6           0       -1.952773    2.289765   -2.361828
      2          6           0       -0.544085    2.290220   -2.664830
      3          6           0        0.046604    1.165786   -3.227095
      4          6           0       -0.751842   -0.000112   -3.510413
      5          6           0       -2.109216   -0.000064   -3.220487
      6          6           0       -2.721065    1.166241   -2.634444
      7          6           0       -2.143269    3.010642   -1.127799
      8          6           0       -0.851690    3.455608   -0.668440
      9          6           0        0.135931    3.007830   -1.618822
     10          6           0        1.377643    2.572071   -1.175537
     11          6           0        1.338104    0.722355   -2.770449
     12          6           0        0.046507   -1.166040   -3.226984
     13          6           0       -0.544254   -2.290390   -2.664643
     14          6           0       -1.952946   -2.289835   -2.361663
     15          6           0       -2.721169   -1.166286   -2.634371
     16          6           0       -3.709120   -0.720857   -1.684568
     17          6           0       -3.708985    0.720934   -1.684578
     18          6           0       -3.892463    1.414968   -0.496478
     19          6           0       -3.094771    2.581454   -0.212816
     20          6           0       -0.559613    3.455963    0.688081
     21          6           0       -1.547432    3.010971    1.638532
     22          6           0       -2.791161    2.581513    1.196489
     23          6           0       -3.401190    1.415004    1.783492
     24          6           0       -4.082063    0.694196    0.737335
     25          6           0       -4.082067   -0.693898    0.737360
     26          6           0       -3.892549   -1.414777   -0.496388
     27          6           0       -3.094962   -2.581315   -0.212642
     28          6           0       -2.143481   -3.010624   -1.127589
     29          6           0        1.338025   -0.722671   -2.770356
     30          6           0        0.731464   -3.008166    1.147689
     31          6           0        1.680456   -2.571940    0.232251
     32          6           0        2.480645   -1.410401    0.512653
     33          6           0        2.301333   -0.722952    1.701281
     34          6           0        1.312762   -1.165954    2.649512
     35          6           0       -0.865738   -2.289814    2.684718
     36          6           0       -1.547634   -3.010793    1.638735
     37          6           0       -0.559840   -3.455914    0.688321
     38          6           0       -0.851926   -3.455633   -0.668195
     39          6           0        0.135723   -3.007970   -1.618596
     40          6           0        1.377466   -2.572262   -1.175341
     41          6           0        2.480666    1.410201    0.512539
     42          6           0        2.301373    0.722874    1.701244
     43          6           0        1.312833    1.166004    2.649436
     44          6           0        0.701813    0.000063    3.236480
     45          6           0       -0.654429    0.000121    3.531337
     46          6           0       -1.453425   -1.166170    3.249412
     47          6           0       -2.791339   -2.581290    1.196662
     48          6           0       -3.401288   -1.414694    1.783577
     49          6           0       -2.744767   -0.720710    2.790737
     50          6           0       -2.744716    0.721045    2.790707
     51          6           0       -1.453343    1.166449    3.249340
     52          6           0       -0.865584    2.290016    2.684564
     53          6           0        0.542845    2.290710    2.380530
     54          6           0        0.731656    3.008159    1.147478
     55          6           0        1.680605    2.571808    0.232059
     56          6           0        1.992088   -1.410693   -1.761190
     57          6           0        1.992193    1.410409   -1.761313
     58          6           0        0.542695   -2.290624    2.380691
     59          6           0        2.725074   -0.704017   -0.729424
     60          6           0        2.724933    0.703704   -0.729442
     61          6           0        5.516712    0.724280   -0.209966
     62          6           0        5.516498   -0.724297   -0.210239
     63          6           0        5.961042    1.434438    1.033555
     64          1           0        5.904084    2.511361    0.898871
     65          1           0        5.330770    1.161337    1.879277
     66          1           0        6.987746    1.170943    1.281523
     67          6           0        5.960684   -1.435050    1.032986
     68          1           0        6.987539   -1.172066    1.280886
     69          1           0        5.330661   -1.161953    1.878894
     70          1           0        5.903254   -2.511905    0.897961
     71          6           0        4.972993   -1.432048   -1.220707
     72          1           0        4.753022   -1.010903   -2.183894
     73          1           0        4.903705   -2.505920   -1.161050
     74          6           0        4.973686    1.432591   -1.220270
     75          1           0        4.904651    2.506454   -1.160197
     76          1           0        4.753422    1.011835   -2.183556
 ---------------------------------------------------------------------
 Rotational constants (GHZ):           0.0816670           0.0567695           0.0564002
 Leave Link  202 at Tue May 27 14:28:19 2025, MaxMem=   104857600 cpu:               0.0 elap:               0.1
 (Enter /mlatom/software/Gaussian/g16-avx2/l301.exe)
 Standard basis: STO-3G (5D, 7F)
 Ernie: Thresh=  0.10000D-02 Tol=  0.10000D-05 Strict=F.
 There are   340 symmetry adapted cartesian basis functions of A   symmetry.
 There are   340 symmetry adapted basis functions of A   symmetry.
   340 basis functions,  1020 primitive gaussians,   340 cartesian basis functions
   203 alpha electrons      203 beta electrons
       nuclear repulsion energy      9978.7909768321 Hartrees.
 IExCor=    0 DFT=F Ex=HF Corr=None ExCW=0 ScaHFX=  1.000000
 ScaDFX=  1.000000  1.000000  1.000000  1.000000 ScalE2=  1.000000  1.000000
 IRadAn=      5 IRanWt=     -1 IRanGd=            0 ICorTp=0 IEmpDi=  4
 NAtoms=   76 NActive=   76 NUniq=   76 SFac= 1.00D+00 NAtFMM=   60 NAOKFM=T Big=T
 Integral buffers will be    131072 words long.
 Raffenetti 1 integral format.
 Two-electron integral symmetry is turned on.
 Leave Link  301 at Tue May 27 14:28:20 2025, MaxMem=   104857600 cpu:               0.0 elap:               0.2
 (Enter /mlatom/software/Gaussian/g16-avx2/l402.exe)
 External calculation of energy, first and second derivatives.
 Running external command "/mlatom/software/miniconda3/bin/python /mlatom/software/mlatom_xacs/mlatom/interfaces/gaussian_interface.py model_predict_kwargs R"
         input file       "/mlatom/home/huangyh/projects/delta_learning/paper/revision1/Starting_from_ub3lyp_d4/c60/xtb/ts/Gau-136593.EIn"
         output file      "/mlatom/home/huangyh/projects/delta_learning/paper/revision1/Starting_from_ub3lyp_d4/c60/xtb/ts/Gau-136593.EOu"
         message file     "/mlatom/home/huangyh/projects/delta_learning/paper/revision1/Starting_from_ub3lyp_d4/c60/xtb/ts/Gau-136593.EMs"
         fchk file        "/mlatom/home/huangyh/projects/delta_learning/paper/revision1/Starting_from_ub3lyp_d4/c60/xtb/ts/Gau-136593.EFC"
         mat. el file     "/mlatom/home/huangyh/projects/delta_learning/paper/revision1/Starting_from_ub3lyp_d4/c60/xtb/ts/Gau-136593.EUF"
 Recovered energy= -146.364354990     dipole=      3.283721686800      0.000000000000      0.266865926558
 Energy=    -146.364355     NIter=   0.
 Dipole moment=       3.283722       0.000000       0.266866
 Leave Link  402 at Tue May 27 14:29:55 2025, MaxMem=   104857600 cpu:               0.1 elap:              95.2
 (Enter /mlatom/software/Gaussian/g16-avx2/l601.exe)
 Leave Link  601 at Tue May 27 14:29:55 2025, MaxMem=   104857600 cpu:               0.0 elap:               0.1
 (Enter /mlatom/software/Gaussian/g16-avx2/l716.exe)
 Dipole        = 3.28372169D+00 0.00000000D+00 2.66865927D-01
 Full mass-weighted force constant matrix:
 Low frequencies --- -158.0889   -0.0156   -0.0115   -0.0029    0.0084    0.0121
 Low frequencies ---    0.0204   23.9461   41.6541
 ******    1 imaginary frequencies (negative Signs) ****** 
 Diagonal vibrational polarizability:
        0.0000000       0.0000000       0.0000000
 Harmonic frequencies (cm**-1), IR intensities (KM/Mole), Raman scattering
 activities (A**4/AMU), depolarization ratios for plane and unpolarized
 incident light, reduced masses (AMU), force constants (mDyne/A),
 and normal coordinates:
                      1                      2                      3
                      A                      A                      A
 Frequencies --   -158.0889                23.9461                41.6541
 Red. masses --      5.5339                 3.5709                 5.2619
 Frc consts  --      0.0815                 0.0012                 0.0054
 IR Inten    --      0.0000                 0.0000                 0.0000
  Atom  AN      X      Y      Z        X      Y      Z        X      Y      Z
     1   6    -0.01  -0.00   0.00     0.02   0.01   0.01    -0.03  -0.00   0.00
     2   6    -0.01   0.00  -0.00     0.02   0.00   0.01    -0.03  -0.00  -0.02
     3   6    -0.02   0.00  -0.01     0.01  -0.00   0.00    -0.04  -0.00  -0.03
     4   6    -0.02  -0.00  -0.01     0.00   0.01   0.00    -0.05  -0.00  -0.02
     5   6    -0.01  -0.00  -0.00     0.00   0.01  -0.00    -0.04   0.00   0.00
     6   6    -0.01   0.00   0.00     0.01   0.02   0.01    -0.03  -0.00   0.01
     7   6    -0.01  -0.00   0.00     0.02   0.01   0.01    -0.01  -0.00   0.00
     8   6    -0.01   0.00   0.00     0.02  -0.00   0.01    -0.00  -0.00  -0.02
     9   6    -0.01   0.01  -0.00     0.02  -0.01   0.01    -0.02  -0.00  -0.03
    10   6    -0.01   0.02  -0.00     0.02  -0.02   0.01    -0.01  -0.00  -0.05
    11   6    -0.02  -0.00  -0.01     0.00  -0.01   0.00    -0.03  -0.00  -0.05
    12   6    -0.02  -0.00  -0.01    -0.01  -0.00  -0.00    -0.04   0.00  -0.03
    13   6    -0.01  -0.00  -0.00    -0.02   0.00  -0.01    -0.03   0.00  -0.02
    14   6    -0.01   0.00   0.00    -0.02   0.01  -0.01    -0.03   0.00   0.00
    15   6    -0.01  -0.00   0.00    -0.01   0.02  -0.01    -0.03   0.00   0.01
    16   6    -0.01   0.00   0.00    -0.01   0.02  -0.00    -0.02   0.00   0.03
    17   6    -0.01  -0.00   0.00     0.01   0.02   0.00    -0.02   0.00   0.03
    18   6    -0.01  -0.00   0.00     0.01   0.02   0.01    -0.00  -0.00   0.03
    19   6    -0.01  -0.00   0.00     0.02   0.01   0.01     0.00  -0.00   0.02
    20   6    -0.01   0.00   0.00     0.02  -0.01   0.01     0.02   0.00  -0.02
    21   6    -0.01  -0.00   0.00     0.02  -0.01   0.01     0.03   0.00  -0.01
    22   6    -0.01  -0.00   0.00     0.02   0.00   0.01     0.03   0.00   0.01
    23   6    -0.01  -0.00   0.00     0.01   0.00   0.01     0.04   0.00   0.02
    24   6    -0.01  -0.00   0.00     0.00   0.01   0.00     0.02   0.00   0.04
    25   6    -0.01   0.00   0.00    -0.00   0.01  -0.00     0.02   0.00   0.04
    26   6    -0.01   0.00   0.00    -0.01   0.02  -0.01    -0.00   0.00   0.03
    27   6    -0.01   0.00   0.00    -0.02   0.01  -0.01     0.00   0.00   0.02
    28   6    -0.01   0.00   0.00    -0.02   0.01  -0.01    -0.01   0.00   0.00
    29   6    -0.02   0.00  -0.01    -0.00  -0.01  -0.00    -0.03   0.00  -0.05
    30   6    -0.01  -0.01   0.00    -0.02  -0.02  -0.01     0.02  -0.00  -0.04
    31   6    -0.01  -0.02   0.00    -0.02  -0.03  -0.01     0.01  -0.00  -0.06
    32   6    -0.02  -0.01   0.01    -0.01  -0.03  -0.01     0.01   0.00  -0.07
    33   6    -0.01   0.00   0.01    -0.00  -0.04  -0.00     0.03  -0.00  -0.07
    34   6    -0.01  -0.00   0.01    -0.01  -0.03  -0.00     0.05  -0.00  -0.05
    35   6    -0.01   0.00   0.00    -0.02  -0.02  -0.01     0.05  -0.00  -0.02
    36   6    -0.01   0.00   0.00    -0.02  -0.01  -0.01     0.03  -0.00  -0.01
    37   6    -0.01  -0.00   0.00    -0.02  -0.01  -0.01     0.02  -0.00  -0.02
    38   6    -0.01  -0.00   0.00    -0.02  -0.00  -0.01    -0.00   0.00  -0.02
    39   6    -0.01  -0.01  -0.00    -0.02  -0.01  -0.01    -0.02   0.00  -0.03
    40   6    -0.01  -0.02  -0.00    -0.02  -0.02  -0.01    -0.01  -0.00  -0.05
    41   6    -0.02   0.01   0.01     0.01  -0.03   0.01     0.01  -0.00  -0.07
    42   6    -0.01  -0.00   0.01     0.00  -0.04   0.00     0.03   0.00  -0.07
    43   6    -0.01   0.00   0.01     0.01  -0.03   0.00     0.05   0.00  -0.05
    44   6    -0.01  -0.00   0.01    -0.00  -0.03   0.00     0.06  -0.00  -0.04
    45   6    -0.01   0.00   0.01    -0.00  -0.02   0.00     0.06  -0.00  -0.02
    46   6    -0.01   0.00   0.00    -0.01  -0.02  -0.00     0.06  -0.00  -0.01
    47   6    -0.01   0.00   0.00    -0.02   0.00  -0.01     0.03  -0.00   0.01
    48   6    -0.01   0.00   0.00    -0.01   0.00  -0.01     0.04  -0.00   0.02
    49   6    -0.01   0.00   0.00    -0.01  -0.00  -0.00     0.05   0.00   0.01
    50   6    -0.01  -0.00   0.00     0.01  -0.00   0.00     0.05  -0.00   0.01
    51   6    -0.01  -0.00   0.00     0.01  -0.02   0.00     0.06   0.00  -0.01
    52   6    -0.01  -0.00   0.00     0.02  -0.02   0.01     0.05   0.00  -0.02
    53   6    -0.01   0.00   0.01     0.02  -0.03   0.01     0.04   0.00  -0.04
    54   6    -0.01   0.01   0.00     0.02  -0.02   0.01     0.02   0.00  -0.04
    55   6    -0.01   0.02   0.00     0.02  -0.03   0.01     0.01   0.00  -0.06
    56   6    -0.03  -0.01  -0.00    -0.01  -0.02  -0.01    -0.02  -0.00  -0.06
    57   6    -0.03   0.01  -0.00     0.01  -0.02   0.01    -0.02   0.00  -0.06
    58   6    -0.01  -0.00   0.01    -0.02  -0.03  -0.01     0.04  -0.00  -0.04
    59   6    -0.16   0.03   0.03    -0.01  -0.03  -0.00    -0.01  -0.00  -0.07
    60   6    -0.16  -0.03   0.03     0.01  -0.03   0.00    -0.01   0.00  -0.07
    61   6     0.07   0.03  -0.02    -0.02   0.06  -0.07    -0.05  -0.00   0.17
    62   6     0.07  -0.03  -0.02     0.02   0.06   0.07    -0.05   0.00   0.17
    63   6    -0.00  -0.01   0.03    -0.03   0.20  -0.15    -0.16  -0.00   0.21
    64   1     0.01  -0.01   0.05    -0.04   0.18  -0.27    -0.15   0.00   0.21
    65   1    -0.05  -0.03  -0.02    -0.02   0.28  -0.12    -0.23  -0.00   0.15
    66   1    -0.02  -0.02   0.08    -0.02   0.24  -0.13    -0.18   0.00   0.30
    67   6    -0.00   0.01   0.03     0.03   0.20   0.15    -0.16   0.00   0.21
    68   1    -0.02   0.02   0.08     0.02   0.24   0.13    -0.18  -0.00   0.30
    69   1    -0.05   0.03  -0.02     0.02   0.28   0.12    -0.23   0.00   0.15
    70   1     0.01   0.01   0.05     0.04   0.18   0.27    -0.15   0.00   0.21
    71   6     0.39  -0.08  -0.10     0.06  -0.06   0.14     0.03   0.00   0.12
    72   1     0.19  -0.04  -0.04     0.05  -0.16   0.09     0.11   0.00   0.10
    73   1     0.46  -0.08  -0.13     0.08  -0.06   0.25     0.03   0.00   0.12
    74   6     0.39   0.08  -0.10    -0.06  -0.06  -0.14     0.03  -0.00   0.12
    75   1     0.46   0.08  -0.13    -0.08  -0.06  -0.25     0.03  -0.00   0.12
    76   1     0.19   0.04  -0.04    -0.05  -0.16  -0.09     0.11  -0.00   0.10
                      4                      5                      6
                      A                      A                      A
 Frequencies --     58.3192                71.2741                90.6131
 Red. masses --      3.3955                 4.7935                 3.8200
 Frc consts  --      0.0068                 0.0143                 0.0185
 IR Inten    --      0.0000                 0.0000                 0.0000
  Atom  AN      X      Y      Z        X      Y      Z        X      Y      Z
     1   6    -0.02   0.00   0.00     0.02  -0.01  -0.00    -0.03  -0.00  -0.00
     2   6    -0.02   0.01   0.00     0.02  -0.02  -0.01    -0.03  -0.00  -0.01
     3   6    -0.01   0.02   0.00     0.01  -0.03  -0.00    -0.03  -0.00  -0.01
     4   6    -0.00   0.01  -0.00    -0.00  -0.02  -0.00    -0.04   0.00  -0.01
     5   6    -0.00   0.00  -0.00    -0.00  -0.01  -0.00    -0.04   0.00  -0.00
     6   6    -0.01  -0.00   0.00     0.01  -0.00  -0.00    -0.03  -0.00   0.00
     7   6    -0.02  -0.00   0.01     0.03  -0.00  -0.01    -0.02  -0.00  -0.00
     8   6    -0.03   0.01   0.01     0.04  -0.02  -0.01    -0.02  -0.00  -0.01
     9   6    -0.02   0.02   0.01     0.03  -0.03  -0.01    -0.03  -0.00  -0.01
    10   6    -0.02   0.03   0.00     0.02  -0.04  -0.00    -0.02  -0.00  -0.02
    11   6    -0.00   0.03   0.00     0.01  -0.04  -0.00    -0.03  -0.00  -0.02
    12   6     0.01   0.02  -0.00    -0.01  -0.03   0.00    -0.03   0.00  -0.01
    13   6     0.02   0.01  -0.00    -0.02  -0.02   0.01    -0.03   0.00  -0.01
    14   6     0.02   0.00  -0.00    -0.03  -0.01   0.00    -0.03   0.00  -0.00
    15   6     0.01  -0.00  -0.00    -0.01  -0.00   0.00    -0.03   0.00   0.00
    16   6     0.01  -0.01  -0.00    -0.01   0.01   0.00    -0.03  -0.00   0.01
    17   6    -0.01  -0.01   0.00     0.01   0.01  -0.00    -0.03   0.00   0.01
    18   6    -0.01  -0.02   0.00     0.02   0.01  -0.00    -0.02   0.00   0.01
    19   6    -0.02  -0.01   0.00     0.03   0.01  -0.00    -0.02  -0.00   0.00
    20   6    -0.03   0.01   0.01     0.04  -0.02  -0.01    -0.01  -0.00  -0.01
    21   6    -0.02  -0.00   0.00     0.03  -0.01  -0.01    -0.01  -0.00  -0.01
    22   6    -0.02  -0.01   0.00     0.03   0.01  -0.00    -0.01  -0.00   0.00
    23   6    -0.01  -0.02   0.00     0.02   0.01  -0.00    -0.01   0.00   0.01
    24   6    -0.01  -0.02   0.00     0.01   0.02  -0.00    -0.02   0.00   0.01
    25   6     0.01  -0.02  -0.00    -0.01   0.02   0.00    -0.02  -0.00   0.01
    26   6     0.01  -0.02  -0.00    -0.02   0.01   0.00    -0.02  -0.00   0.01
    27   6     0.02  -0.01  -0.00    -0.03   0.01   0.00    -0.02   0.00   0.00
    28   6     0.02  -0.00  -0.01    -0.03  -0.00   0.01    -0.02   0.00  -0.00
    29   6     0.00   0.03  -0.00    -0.01  -0.04   0.00    -0.03   0.00  -0.02
    30   6     0.02   0.02  -0.00    -0.03  -0.03   0.00    -0.01   0.00  -0.02
    31   6     0.02   0.03  -0.00    -0.02  -0.04   0.00    -0.01   0.00  -0.02
    32   6     0.00   0.03  -0.00    -0.01  -0.05   0.00    -0.01  -0.00  -0.03
    33   6     0.00   0.03  -0.00    -0.01  -0.05  -0.00    -0.00  -0.00  -0.03
    34   6     0.01   0.02  -0.00    -0.01  -0.03   0.00    -0.00   0.00  -0.02
    35   6     0.02   0.00  -0.00    -0.03  -0.01   0.00    -0.00   0.00  -0.01
    36   6     0.02  -0.00  -0.00    -0.03  -0.01   0.01    -0.01   0.00  -0.01
    37   6     0.03   0.01  -0.01    -0.04  -0.02   0.01    -0.01   0.00  -0.01
    38   6     0.03   0.01  -0.01    -0.04  -0.02   0.01    -0.02   0.00  -0.01
    39   6     0.02   0.02  -0.01    -0.03  -0.03   0.01    -0.03   0.00  -0.01
    40   6     0.02   0.03  -0.00    -0.02  -0.04   0.00    -0.02   0.00  -0.02
    41   6    -0.00   0.03   0.00     0.01  -0.05  -0.00    -0.01   0.00  -0.03
    42   6    -0.00   0.03   0.00     0.01  -0.05   0.00    -0.00   0.00  -0.03
    43   6    -0.01   0.02   0.00     0.01  -0.03  -0.00    -0.00  -0.00  -0.02
    44   6    -0.00   0.01  -0.00    -0.00  -0.03  -0.00     0.00   0.00  -0.02
    45   6    -0.00   0.00  -0.00    -0.00  -0.01  -0.00     0.00   0.00  -0.01
    46   6     0.01  -0.00  -0.00    -0.01  -0.00   0.00     0.00   0.00  -0.01
    47   6     0.02  -0.01  -0.00    -0.03   0.01   0.00    -0.01   0.00   0.00
    48   6     0.01  -0.02  -0.00    -0.02   0.01   0.00    -0.01  -0.00   0.01
    49   6     0.01  -0.01  -0.00    -0.01   0.01   0.00    -0.00  -0.00   0.00
    50   6    -0.01  -0.01   0.00     0.01   0.01  -0.00    -0.00   0.00   0.00
    51   6    -0.01  -0.00   0.00     0.01  -0.00  -0.00     0.00  -0.00  -0.01
    52   6    -0.02   0.00   0.00     0.03  -0.01  -0.00    -0.00  -0.00  -0.01
    53   6    -0.02   0.01   0.00     0.03  -0.03  -0.00    -0.00  -0.00  -0.02
    54   6    -0.02   0.02   0.00     0.03  -0.03  -0.00    -0.01  -0.00  -0.02
    55   6    -0.02   0.03   0.00     0.02  -0.04  -0.00    -0.01  -0.00  -0.02
    56   6     0.01   0.03  -0.00    -0.01  -0.05  -0.00    -0.02   0.00  -0.02
    57   6    -0.01   0.03   0.00     0.01  -0.05   0.00    -0.02  -0.00  -0.02
    58   6     0.02   0.01  -0.00    -0.03  -0.03   0.00    -0.00   0.00  -0.02
    59   6     0.00   0.03  -0.00     0.03  -0.06  -0.01    -0.00  -0.00  -0.03
    60   6    -0.00   0.03   0.00    -0.03  -0.06   0.01    -0.00   0.00  -0.03
    61   6     0.07  -0.07  -0.04     0.06   0.16   0.02     0.11  -0.00   0.09
    62   6    -0.07  -0.07   0.04    -0.06   0.16  -0.02     0.11   0.00   0.09
    63   6     0.22  -0.04  -0.11     0.17   0.08   0.03     0.27  -0.00   0.03
    64   1     0.37  -0.04  -0.19     0.29   0.09   0.05     0.24  -0.00   0.04
    65   1     0.22   0.11  -0.07     0.16   0.14   0.04     0.39  -0.01   0.12
    66   1     0.19  -0.17  -0.14     0.14  -0.04  -0.00     0.30   0.01  -0.11
    67   6    -0.22  -0.04   0.11    -0.17   0.08  -0.03     0.27   0.00   0.03
    68   1    -0.19  -0.17   0.14    -0.14  -0.04   0.00     0.31  -0.01  -0.11
    69   1    -0.22   0.11   0.07    -0.16   0.14  -0.04     0.39   0.01   0.12
    70   1    -0.37  -0.04   0.19    -0.28   0.09  -0.05     0.24   0.00   0.05
    71   6    -0.08  -0.08   0.05    -0.13   0.23  -0.05     0.02   0.00   0.13
    72   1     0.03  -0.11   0.01    -0.03   0.27  -0.05    -0.02  -0.00   0.14
    73   1    -0.18  -0.07   0.11    -0.17   0.23  -0.09     0.02   0.00   0.14
    74   6     0.08  -0.08  -0.05     0.13   0.23   0.05     0.02  -0.00   0.13
    75   1     0.18  -0.07  -0.11     0.17   0.23   0.09     0.02  -0.00   0.14
    76   1    -0.03  -0.11  -0.01     0.03   0.27   0.05    -0.02  -0.00   0.14
                      7                      8                      9
                      A                      A                      A
 Frequencies --    122.6466               153.2119               217.0972
 Red. masses --      1.0550                 3.3527                 1.2450
 Frc consts  --      0.0093                 0.0464                 0.0346
 IR Inten    --      0.0000                 0.0000                 0.0000
  Atom  AN      X      Y      Z        X      Y      Z        X      Y      Z
     1   6    -0.00  -0.00   0.00    -0.00  -0.00   0.00    -0.00  -0.00   0.01
     2   6    -0.00   0.00   0.00    -0.00   0.00   0.00    -0.00  -0.01   0.01
     3   6    -0.00   0.00  -0.00     0.00   0.01  -0.00     0.00  -0.00   0.01
     4   6    -0.00   0.00   0.00    -0.00   0.01   0.00    -0.00  -0.00   0.01
     5   6    -0.00   0.00   0.00    -0.00   0.00   0.00    -0.00   0.00   0.01
     6   6    -0.00  -0.00   0.00    -0.00  -0.00   0.00    -0.01  -0.00   0.01
     7   6    -0.00  -0.00   0.00    -0.00  -0.00   0.00    -0.01  -0.01   0.00
     8   6    -0.00  -0.00   0.00    -0.00  -0.00   0.00    -0.00  -0.01   0.00
     9   6    -0.00   0.00   0.00    -0.00   0.00   0.00    -0.00  -0.01   0.01
    10   6     0.00   0.00  -0.00     0.00   0.01  -0.00     0.00  -0.01  -0.00
    11   6     0.00   0.00  -0.00     0.00   0.01  -0.00     0.01   0.00   0.00
    12   6     0.00   0.00   0.00    -0.00   0.01   0.00     0.00   0.00   0.01
    13   6     0.00   0.00  -0.00     0.00   0.00  -0.00    -0.00   0.01   0.01
    14   6     0.00  -0.00  -0.00     0.00  -0.00  -0.00    -0.00   0.00   0.01
    15   6     0.00  -0.00  -0.00     0.00  -0.00  -0.00    -0.01   0.00   0.01
    16   6     0.00  -0.00  -0.00     0.00  -0.00  -0.00    -0.01  -0.00   0.00
    17   6    -0.00  -0.00   0.00    -0.00  -0.00   0.00    -0.01   0.00   0.00
    18   6    -0.00  -0.00   0.00    -0.00  -0.01   0.00    -0.02   0.00   0.00
    19   6    -0.00  -0.00   0.00    -0.00  -0.01   0.00    -0.01  -0.00   0.00
    20   6    -0.00  -0.00   0.00    -0.00  -0.00   0.00    -0.00  -0.01  -0.00
    21   6    -0.00  -0.00   0.00    -0.00  -0.00   0.00    -0.01  -0.01  -0.00
    22   6    -0.00  -0.00   0.00    -0.00  -0.01   0.00    -0.01  -0.00   0.00
    23   6    -0.00  -0.00   0.00    -0.00  -0.01   0.00    -0.02   0.00   0.00
    24   6    -0.00  -0.00   0.00    -0.00  -0.01   0.00    -0.02   0.00   0.00
    25   6     0.00  -0.00  -0.00     0.00  -0.01  -0.00    -0.02  -0.00   0.00
    26   6     0.00  -0.00  -0.00     0.00  -0.01  -0.00    -0.02  -0.00   0.00
    27   6     0.00  -0.00  -0.00     0.00  -0.01  -0.00    -0.01   0.00   0.00
    28   6     0.00  -0.00  -0.00     0.00  -0.00  -0.00    -0.01   0.01   0.00
    29   6    -0.00   0.00   0.00    -0.00   0.01   0.00     0.01  -0.00   0.00
    30   6     0.00   0.00   0.00     0.00   0.00  -0.00    -0.00   0.01  -0.01
    31   6    -0.00   0.00   0.00    -0.00   0.01   0.00     0.00   0.01  -0.00
    32   6    -0.00   0.00   0.00    -0.01   0.01   0.00     0.02   0.00  -0.01
    33   6     0.00   0.00   0.00    -0.00   0.01   0.00     0.00   0.00  -0.01
    34   6     0.00   0.00   0.00    -0.00   0.00   0.00    -0.00   0.00  -0.01
    35   6     0.00  -0.00  -0.00     0.00  -0.00  -0.00    -0.01   0.00  -0.00
    36   6     0.00  -0.00  -0.00     0.00  -0.00  -0.00    -0.01   0.01  -0.00
    37   6     0.00  -0.00  -0.00     0.00  -0.00  -0.00    -0.00   0.01  -0.00
    38   6     0.00  -0.00  -0.00     0.00  -0.00  -0.00    -0.00   0.01   0.00
    39   6     0.00   0.00  -0.00     0.00   0.00  -0.00    -0.00   0.01   0.01
    40   6    -0.00   0.00   0.00    -0.00   0.01   0.00     0.00   0.01  -0.00
    41   6     0.00   0.00  -0.00     0.01   0.01  -0.00     0.02  -0.00  -0.01
    42   6    -0.00   0.00  -0.00     0.00   0.01  -0.00     0.00  -0.00  -0.01
    43   6    -0.00   0.00  -0.00     0.00   0.00  -0.00    -0.00  -0.00  -0.01
    44   6    -0.00  -0.00  -0.00    -0.00   0.00  -0.00    -0.01  -0.00  -0.01
    45   6    -0.00  -0.00  -0.00    -0.00  -0.00  -0.00    -0.01   0.00  -0.01
    46   6     0.00  -0.00  -0.00     0.00  -0.00  -0.00    -0.01   0.00  -0.00
    47   6     0.00  -0.00  -0.00     0.00  -0.01  -0.00    -0.01   0.00   0.00
    48   6     0.00  -0.00  -0.00     0.00  -0.01  -0.00    -0.02  -0.00   0.00
    49   6     0.00  -0.00  -0.00     0.00  -0.01  -0.00    -0.01  -0.00   0.00
    50   6    -0.00  -0.00   0.00    -0.00  -0.01   0.00    -0.01   0.00   0.00
    51   6    -0.00  -0.00   0.00    -0.00  -0.00   0.00    -0.01  -0.00  -0.00
    52   6    -0.00  -0.00   0.00    -0.00  -0.00   0.00    -0.01  -0.00  -0.00
    53   6    -0.00  -0.00  -0.00    -0.00   0.00   0.00    -0.01  -0.01  -0.01
    54   6    -0.00   0.00  -0.00    -0.00   0.00   0.00    -0.00  -0.01  -0.01
    55   6     0.00   0.00  -0.00     0.00   0.01  -0.00     0.00  -0.01  -0.00
    56   6    -0.00   0.00   0.00    -0.01   0.01   0.00     0.02   0.00  -0.00
    57   6     0.00   0.00  -0.00     0.01   0.01  -0.00     0.02  -0.00  -0.00
    58   6     0.00  -0.00   0.00     0.00   0.00  -0.00    -0.01   0.01  -0.01
    59   6     0.00   0.00   0.00     0.02   0.00  -0.00     0.04  -0.01  -0.01
    60   6    -0.00   0.00  -0.00    -0.02   0.00   0.00     0.04   0.00  -0.01
    61   6     0.00  -0.00  -0.00     0.04  -0.01  -0.03     0.06  -0.00  -0.02
    62   6    -0.00  -0.00   0.00    -0.04  -0.01   0.03     0.06   0.00  -0.02
    63   6    -0.04  -0.00   0.01    -0.11  -0.00   0.02     0.01   0.00   0.00
    64   1     0.31   0.00  -0.11    -0.29  -0.01   0.08     0.35   0.00  -0.12
    65   1    -0.32   0.28  -0.10    -0.08  -0.16  -0.01    -0.29   0.27  -0.13
    66   1    -0.18  -0.29   0.28    -0.06   0.17   0.04    -0.13  -0.27   0.29
    67   6     0.04  -0.00  -0.01     0.11  -0.00  -0.02     0.01  -0.00   0.00
    68   1     0.18  -0.29  -0.28     0.06   0.17  -0.03    -0.13   0.27   0.29
    69   1     0.32   0.28   0.10     0.08  -0.16   0.01    -0.29  -0.27  -0.13
    70   1    -0.31   0.00   0.11     0.29  -0.01  -0.08     0.35  -0.00  -0.12
    71   6    -0.02   0.00   0.01    -0.27   0.00   0.13     0.01   0.01   0.00
    72   1    -0.02   0.00   0.01    -0.28  -0.03   0.12     0.02   0.01  -0.00
    73   1    -0.02   0.00   0.01    -0.33   0.01   0.18    -0.02   0.01   0.01
    74   6     0.02   0.00  -0.01     0.27   0.00  -0.13     0.01  -0.01   0.00
    75   1     0.02   0.00  -0.01     0.33   0.01  -0.18    -0.02  -0.01   0.01
    76   1     0.02   0.00  -0.01     0.28  -0.03  -0.12     0.02  -0.01  -0.00
                     10                     11                     12
                      A                      A                      A
 Frequencies --    242.1423               253.0190               253.9932
 Red. masses --      3.9208                11.9957                11.9920
 Frc consts  --      0.1354                 0.4525                 0.4558
 IR Inten    --      0.0000                 0.0000                 0.0000
  Atom  AN      X      Y      Z        X      Y      Z        X      Y      Z
     1   6     0.00  -0.03   0.04     0.05  -0.14   0.14    -0.02  -0.06  -0.09
     2   6     0.01  -0.03   0.04     0.02  -0.14   0.14    -0.02  -0.06  -0.09
     3   6     0.03  -0.01   0.04    -0.01  -0.11   0.09     0.00  -0.02  -0.15
     4   6     0.01  -0.00   0.06     0.00  -0.10   0.00    -0.03  -0.00  -0.19
     5   6     0.01   0.00   0.06     0.00  -0.11   0.00    -0.05   0.00  -0.18
     6   6    -0.01  -0.01   0.04     0.06  -0.12   0.08    -0.06  -0.02  -0.13
     7   6    -0.01  -0.03   0.03     0.06  -0.10   0.11     0.01  -0.15  -0.03
     8   6    -0.00  -0.05   0.01     0.03  -0.05   0.11     0.00  -0.21   0.00
     9   6     0.01  -0.04   0.02     0.01  -0.09   0.11    -0.02  -0.15  -0.02
    10   6     0.03  -0.03  -0.01     0.01  -0.04   0.09    -0.03  -0.12   0.00
    11   6     0.05   0.00  -0.00    -0.01  -0.08   0.06     0.01  -0.00  -0.10
    12   6     0.03   0.01   0.04     0.01  -0.11  -0.09     0.00   0.02  -0.15
    13   6     0.01   0.03   0.04    -0.02  -0.14  -0.14    -0.02   0.06  -0.09
    14   6     0.00   0.03   0.04    -0.05  -0.14  -0.14    -0.02   0.06  -0.09
    15   6    -0.01   0.01   0.04    -0.06  -0.12  -0.08    -0.06   0.02  -0.13
    16   6    -0.05   0.00   0.02    -0.04  -0.09  -0.05    -0.04   0.00  -0.08
    17   6    -0.05  -0.00   0.02     0.04  -0.09   0.05    -0.04  -0.00  -0.08
    18   6    -0.07   0.00   0.02     0.05  -0.05   0.04    -0.01  -0.06  -0.03
    19   6    -0.04  -0.01   0.01     0.04  -0.05   0.08     0.03  -0.11  -0.01
    20   6    -0.01  -0.05  -0.00     0.03   0.06   0.11    -0.00  -0.21  -0.00
    21   6    -0.03  -0.03  -0.01     0.01   0.09   0.11     0.02  -0.15   0.02
    22   6    -0.05  -0.01   0.01     0.01   0.03   0.08     0.03  -0.11  -0.00
    23   6    -0.08   0.00   0.02    -0.02   0.04   0.05     0.00  -0.06   0.03
    24   6    -0.10   0.00   0.02     0.00  -0.01   0.04    -0.01  -0.01   0.00
    25   6    -0.10  -0.00   0.02    -0.00  -0.01  -0.04    -0.01   0.01   0.00
    26   6    -0.07  -0.00   0.02    -0.05  -0.05  -0.04    -0.01   0.06  -0.03
    27   6    -0.04   0.01   0.01    -0.04  -0.05  -0.08     0.03   0.11  -0.01
    28   6    -0.01   0.03   0.03    -0.06  -0.10  -0.11     0.01   0.15  -0.03
    29   6     0.05  -0.00  -0.00     0.01  -0.08  -0.06     0.01   0.00  -0.10
    30   6    -0.00   0.04  -0.03    -0.06   0.10  -0.11    -0.01   0.15   0.03
    31   6     0.03   0.03  -0.01    -0.04   0.06  -0.08    -0.03   0.12   0.01
    32   6     0.08   0.00  -0.02    -0.06   0.06  -0.04     0.01   0.06   0.03
    33   6     0.04   0.00  -0.03    -0.03   0.09  -0.05     0.04   0.00   0.09
    34   6    -0.00   0.02  -0.05    -0.05   0.12  -0.08     0.06   0.02   0.14
    35   6    -0.02   0.03  -0.03    -0.02   0.13  -0.14     0.02   0.06   0.09
    36   6    -0.03   0.03  -0.01    -0.01   0.09  -0.11     0.02   0.15   0.02
    37   6    -0.01   0.05  -0.00    -0.03   0.06  -0.11    -0.00   0.21  -0.00
    38   6    -0.00   0.05   0.01    -0.03  -0.05  -0.11     0.00   0.21   0.00
    39   6     0.01   0.04   0.02    -0.01  -0.09  -0.11    -0.02   0.15  -0.02
    40   6     0.03   0.03  -0.01    -0.01  -0.04  -0.09    -0.03   0.12   0.00
    41   6     0.08  -0.00  -0.02     0.06   0.06   0.04     0.01  -0.06   0.03
    42   6     0.04  -0.00  -0.03     0.03   0.09   0.05     0.04  -0.00   0.09
    43   6    -0.00  -0.02  -0.05     0.05   0.12   0.08     0.06  -0.02   0.14
    44   6    -0.02  -0.00  -0.06    -0.00   0.11  -0.00     0.05  -0.00   0.19
    45   6    -0.02   0.00  -0.05    -0.00   0.10  -0.00     0.03   0.00   0.19
    46   6    -0.04   0.01  -0.02     0.01   0.11  -0.08    -0.00   0.02   0.15
    47   6    -0.05   0.01   0.01    -0.01   0.03  -0.08     0.03   0.11  -0.00
    48   6    -0.08  -0.00   0.02     0.02   0.04  -0.05     0.00   0.06   0.03
    49   6    -0.06  -0.00   0.01     0.01   0.07  -0.05    -0.01   0.00   0.09
    50   6    -0.06   0.00   0.01    -0.01   0.07   0.05    -0.01  -0.00   0.09
    51   6    -0.04  -0.01  -0.02    -0.01   0.11   0.08    -0.00  -0.02   0.15
    52   6    -0.02  -0.03  -0.03     0.02   0.13   0.14     0.02  -0.06   0.09
    53   6    -0.02  -0.03  -0.03     0.05   0.14   0.14     0.02  -0.06   0.09
    54   6    -0.00  -0.04  -0.03     0.06   0.10   0.11    -0.01  -0.15   0.03
    55   6     0.03  -0.03  -0.01     0.04   0.06   0.08    -0.03  -0.12   0.01
    56   6     0.09  -0.00  -0.02     0.02  -0.04  -0.06    -0.00   0.06  -0.04
    57   6     0.09   0.00  -0.02    -0.02  -0.04   0.06    -0.00  -0.06  -0.04
    58   6    -0.02   0.03  -0.03    -0.05   0.14  -0.14     0.02   0.06   0.09
    59   6     0.15  -0.01  -0.04    -0.01   0.01  -0.04     0.01   0.01  -0.00
    60   6     0.15   0.01  -0.04     0.01   0.01   0.04     0.01  -0.01  -0.00
    61   6     0.07  -0.01  -0.01     0.00  -0.00  -0.00     0.00  -0.00  -0.00
    62   6     0.07   0.01  -0.01    -0.00  -0.00   0.00     0.00   0.00  -0.00
    63   6    -0.04   0.02   0.01    -0.00   0.00   0.00    -0.00  -0.00   0.00
    64   1    -0.37   0.01   0.11    -0.01   0.00  -0.00    -0.01  -0.00   0.01
    65   1     0.13  -0.24   0.05    -0.01  -0.00  -0.00     0.00  -0.01  -0.00
    66   1     0.06   0.29  -0.11    -0.00   0.00   0.01     0.00   0.01  -0.00
    67   6    -0.04  -0.02   0.01     0.00   0.00  -0.00    -0.00   0.00   0.00
    68   1     0.06  -0.29  -0.11     0.00   0.00  -0.01     0.00  -0.01  -0.00
    69   1     0.13   0.24   0.05     0.01  -0.00   0.00     0.00   0.01  -0.00
    70   1    -0.37  -0.01   0.11     0.00   0.00   0.00    -0.01   0.00   0.01
    71   6     0.06   0.03  -0.04    -0.00   0.00   0.00     0.00  -0.00  -0.00
    72   1     0.16   0.03  -0.06    -0.00   0.00   0.00     0.01  -0.00  -0.00
    73   1     0.02   0.03  -0.04    -0.01   0.00   0.00    -0.00   0.00   0.00
    74   6     0.06  -0.03  -0.04     0.00   0.00  -0.00     0.00   0.00  -0.00
    75   1     0.02  -0.03  -0.04     0.01   0.00  -0.00    -0.00  -0.00   0.00
    76   1     0.16  -0.03  -0.06     0.00   0.00  -0.00     0.01   0.00  -0.00
                     13                     14                     15
                      A                      A                      A
 Frequencies --    255.5371               256.2408               305.8031
 Red. masses --     11.9751                11.8208                 4.9268
 Frc consts  --      0.4607                 0.4573                 0.2715
 IR Inten    --      0.0000                 0.0000                 0.0000
  Atom  AN      X      Y      Z        X      Y      Z        X      Y      Z
     1   6    -0.08   0.04   0.01     0.09  -0.01   0.02    -0.04   0.04  -0.04
     2   6    -0.07  -0.06   0.05     0.07   0.02  -0.07    -0.04   0.01   0.00
     3   6    -0.04  -0.05   0.05     0.09   0.03  -0.12    -0.04  -0.00   0.04
     4   6     0.00  -0.04   0.00     0.10   0.00  -0.09    -0.03  -0.00   0.01
     5   6     0.00   0.03   0.00     0.12   0.00   0.03    -0.04  -0.00  -0.06
     6   6    -0.05   0.04  -0.02     0.14  -0.02   0.07    -0.03   0.02  -0.06
     7   6    -0.12   0.07   0.00     0.06  -0.03   0.03    -0.02   0.05  -0.03
     8   6    -0.10  -0.01   0.03     0.04   0.01  -0.01    -0.02   0.03  -0.00
     9   6    -0.11  -0.09   0.06     0.03   0.04  -0.06    -0.03  -0.01   0.01
    10   6    -0.13  -0.15   0.05     0.03   0.02  -0.09    -0.03  -0.03   0.01
    11   6    -0.04  -0.09   0.02     0.10   0.01  -0.16    -0.04  -0.00   0.04
    12   6     0.04  -0.05  -0.05     0.09  -0.03  -0.12    -0.04   0.00   0.04
    13   6     0.07  -0.06  -0.05     0.07  -0.02  -0.07    -0.04  -0.01   0.00
    14   6     0.08   0.04  -0.01     0.09   0.01   0.02    -0.04  -0.04  -0.04
    15   6     0.05   0.04   0.02     0.14   0.02   0.07    -0.03  -0.02  -0.06
    16   6     0.05   0.08   0.00     0.18   0.01   0.11     0.02  -0.00  -0.03
    17   6    -0.05   0.08  -0.00     0.18  -0.01   0.11     0.02   0.00  -0.03
    18   6    -0.10   0.11  -0.00     0.12  -0.03   0.09     0.08   0.00  -0.02
    19   6    -0.14   0.14   0.02     0.07  -0.02   0.07     0.01   0.03  -0.01
    20   6    -0.10  -0.00   0.03    -0.04   0.01   0.01    -0.02   0.03   0.01
    21   6    -0.11   0.09   0.06    -0.04   0.04   0.05    -0.01   0.05   0.04
    22   6    -0.14   0.15   0.05    -0.03   0.02   0.09     0.02   0.03   0.00
    23   6    -0.09   0.12   0.05    -0.05   0.03   0.13     0.08   0.00  -0.01
    24   6    -0.06   0.11   0.02     0.03  -0.00   0.10     0.14  -0.01  -0.03
    25   6     0.06   0.11  -0.02     0.03   0.00   0.10     0.14   0.01  -0.03
    26   6     0.10   0.11   0.00     0.12   0.03   0.09     0.08  -0.00  -0.02
    27   6     0.14   0.14  -0.02     0.07   0.02   0.07     0.01  -0.03  -0.01
    28   6     0.12   0.07  -0.00     0.06   0.03   0.03    -0.02  -0.05  -0.03
    29   6     0.04  -0.09  -0.02     0.10  -0.01  -0.16    -0.04   0.00   0.04
    30   6     0.11  -0.08   0.00    -0.06   0.03  -0.03    -0.03   0.01   0.00
    31   6     0.13  -0.14  -0.02    -0.07   0.02  -0.07    -0.04   0.03   0.00
    32   6     0.09  -0.11   0.00    -0.11   0.03  -0.09     0.00   0.01  -0.01
    33   6     0.04  -0.08  -0.00    -0.17   0.01  -0.10    -0.05   0.00  -0.02
    34   6     0.05  -0.04   0.02    -0.13   0.02  -0.07    -0.05   0.00  -0.02
    35   6     0.07   0.06  -0.05    -0.07  -0.02   0.06    -0.02  -0.04   0.05
    36   6     0.11   0.09  -0.06    -0.04  -0.04   0.05    -0.01  -0.05   0.04
    37   6     0.10  -0.00  -0.03    -0.04  -0.01   0.01    -0.02  -0.03   0.01
    38   6     0.10  -0.01  -0.03     0.04  -0.01  -0.01    -0.02  -0.03  -0.00
    39   6     0.11  -0.09  -0.06     0.03  -0.04  -0.06    -0.03   0.01   0.01
    40   6     0.13  -0.15  -0.05     0.03  -0.02  -0.09    -0.03   0.03   0.01
    41   6    -0.09  -0.11  -0.00    -0.11  -0.03  -0.09     0.00  -0.01  -0.01
    42   6    -0.04  -0.08   0.00    -0.17  -0.01  -0.10    -0.05  -0.00  -0.02
    43   6    -0.05  -0.04  -0.02    -0.13  -0.02  -0.07    -0.05  -0.00  -0.02
    44   6    -0.00  -0.03  -0.00    -0.12  -0.00  -0.03    -0.03  -0.00   0.01
    45   6    -0.00   0.05  -0.00    -0.10  -0.00   0.08    -0.01   0.00   0.07
    46   6     0.04   0.06  -0.05    -0.09  -0.03   0.12    -0.00  -0.02   0.07
    47   6     0.14   0.15  -0.05    -0.03  -0.02   0.09     0.02  -0.03   0.00
    48   6     0.09   0.12  -0.05    -0.05  -0.03   0.13     0.08  -0.00  -0.01
    49   6     0.04   0.09  -0.03    -0.11  -0.01   0.17     0.03  -0.00   0.02
    50   6    -0.04   0.09   0.03    -0.11   0.01   0.17     0.03   0.00   0.02
    51   6    -0.04   0.06   0.05    -0.09   0.03   0.12    -0.00   0.02   0.07
    52   6    -0.07   0.06   0.05    -0.07   0.02   0.06    -0.02   0.04   0.05
    53   6    -0.08  -0.04   0.01    -0.09  -0.01  -0.02    -0.03   0.01   0.01
    54   6    -0.11  -0.08  -0.00    -0.06  -0.03  -0.03    -0.03  -0.01   0.00
    55   6    -0.13  -0.14   0.02    -0.07  -0.02  -0.07    -0.04  -0.03   0.00
    56   6     0.09  -0.12  -0.05     0.04  -0.03  -0.12     0.01   0.01   0.01
    57   6    -0.09  -0.12   0.05     0.04   0.03  -0.12     0.01  -0.01   0.01
    58   6     0.08  -0.04  -0.01    -0.09   0.01  -0.02    -0.03  -0.01   0.01
    59   6     0.06  -0.11  -0.02    -0.04   0.00  -0.09     0.10  -0.01  -0.02
    60   6    -0.06  -0.11   0.02    -0.04  -0.00  -0.09     0.10   0.01  -0.02
    61   6    -0.00  -0.00  -0.00    -0.01   0.00   0.01     0.15  -0.00   0.02
    62   6     0.00  -0.00   0.00    -0.01  -0.00   0.01     0.15   0.00   0.02
    63   6    -0.01  -0.00  -0.00     0.02  -0.00  -0.00    -0.04   0.17  -0.01
    64   1    -0.01  -0.00  -0.00     0.07  -0.00  -0.02    -0.23   0.14  -0.10
    65   1    -0.01  -0.00  -0.00     0.00   0.04  -0.00    -0.04   0.11  -0.03
    66   1    -0.01   0.00   0.00     0.01  -0.04  -0.00    -0.00   0.37   0.08
    67   6     0.01  -0.00   0.00     0.02   0.00  -0.00    -0.04  -0.17  -0.01
    68   1     0.01   0.00  -0.00     0.01   0.04  -0.00    -0.00  -0.37   0.08
    69   1     0.01  -0.00   0.00     0.00  -0.04  -0.00    -0.04  -0.11  -0.03
    70   1     0.01  -0.00   0.00     0.07   0.00  -0.02    -0.23  -0.14  -0.10
    71   6    -0.03  -0.00   0.01    -0.00  -0.00   0.00     0.04   0.12  -0.02
    72   1     0.01  -0.01   0.00    -0.00  -0.00   0.00     0.15   0.17  -0.03
    73   1    -0.02  -0.00   0.01     0.00  -0.00   0.00    -0.04   0.12  -0.09
    74   6     0.03  -0.00  -0.01    -0.00   0.00   0.00     0.04  -0.12  -0.02
    75   1     0.02  -0.00  -0.01     0.00   0.00   0.00    -0.05  -0.12  -0.09
    76   1    -0.01  -0.01  -0.00    -0.00   0.00   0.00     0.15  -0.17  -0.03
                     16                     17                     18
                      A                      A                      A
 Frequencies --    313.6360               332.6275               333.4336
 Red. masses --      3.1933                11.8909                11.7831
 Frc consts  --      0.1851                 0.7751                 0.7718
 IR Inten    --      0.0000                 0.0000                 0.0000
  Atom  AN      X      Y      Z        X      Y      Z        X      Y      Z
     1   6     0.02  -0.02   0.02     0.06  -0.12   0.12    -0.00   0.05   0.01
     2   6     0.02  -0.00  -0.00     0.04  -0.06   0.07    -0.01  -0.01  -0.03
     3   6     0.02   0.00  -0.02     0.03  -0.02   0.01     0.04   0.03  -0.12
     4   6     0.01  -0.00  -0.01    -0.00  -0.02   0.00     0.06  -0.00  -0.11
     5   6     0.02   0.00   0.03    -0.00  -0.06  -0.00     0.11  -0.00   0.08
     6   6     0.02  -0.01   0.03     0.04  -0.07   0.08     0.10  -0.02   0.10
     7   6     0.01  -0.03   0.01     0.01  -0.10   0.07    -0.07   0.11  -0.01
     8   6     0.01  -0.01   0.00     0.02  -0.09   0.01    -0.06   0.02   0.01
     9   6     0.01   0.01  -0.01     0.07  -0.02   0.01    -0.06  -0.08   0.03
    10   6     0.01   0.02  -0.01     0.16   0.12  -0.08    -0.11  -0.17   0.03
    11   6     0.01   0.00  -0.02     0.05   0.05  -0.03     0.06   0.01  -0.15
    12   6     0.02  -0.00  -0.02    -0.03  -0.02  -0.01     0.04  -0.03  -0.12
    13   6     0.02   0.00  -0.00    -0.04  -0.06  -0.07    -0.01   0.01  -0.03
    14   6     0.02   0.02   0.02    -0.06  -0.12  -0.12    -0.00  -0.05   0.01
    15   6     0.02   0.01   0.03    -0.04  -0.07  -0.09     0.10   0.02   0.10
    16   6    -0.00   0.00   0.01    -0.01  -0.00  -0.05     0.14   0.01   0.12
    17   6    -0.00  -0.00   0.01     0.01  -0.00   0.05     0.14  -0.01   0.12
    18   6    -0.03  -0.00   0.01    -0.10   0.07   0.02    -0.00   0.07   0.04
    19   6    -0.00  -0.02   0.00    -0.10   0.06   0.04    -0.10   0.17   0.01
    20   6     0.01  -0.01  -0.00    -0.02  -0.09  -0.01    -0.06   0.00   0.01
    21   6     0.00  -0.02  -0.02    -0.06  -0.03  -0.02    -0.06   0.10   0.03
    22   6    -0.01  -0.02  -0.00    -0.15   0.11   0.07    -0.10   0.17   0.03
    23   6    -0.03  -0.00   0.00    -0.16   0.11   0.10    -0.02   0.07  -0.03
    24   6    -0.06   0.00   0.01    -0.12   0.11   0.06     0.02   0.01  -0.00
    25   6    -0.06  -0.00   0.01     0.12   0.11  -0.06     0.02  -0.01  -0.00
    26   6    -0.03   0.00   0.01     0.10   0.07  -0.03    -0.00  -0.07   0.04
    27   6    -0.00   0.02   0.00     0.10   0.07  -0.04    -0.10  -0.17   0.01
    28   6     0.01   0.03   0.01    -0.01  -0.09  -0.07    -0.07  -0.11  -0.01
    29   6     0.01  -0.00  -0.02    -0.05   0.05   0.03     0.06  -0.01  -0.15
    30   6     0.02  -0.01   0.00     0.01  -0.09   0.08    -0.08   0.10  -0.01
    31   6     0.01  -0.02   0.00    -0.11   0.06   0.05    -0.12   0.17   0.02
    32   6    -0.01  -0.00   0.01    -0.10   0.06   0.02    -0.01   0.07   0.04
    33   6     0.02  -0.00   0.01    -0.00  -0.01   0.05     0.12  -0.01   0.12
    34   6     0.02  -0.00   0.02     0.03  -0.08   0.08     0.09  -0.03   0.10
    35   6     0.01   0.02  -0.02     0.03  -0.07   0.08    -0.01  -0.03  -0.02
    36   6     0.00   0.02  -0.02     0.06  -0.03   0.02    -0.06  -0.10   0.03
    37   6     0.01   0.01  -0.00     0.02  -0.09   0.01    -0.06  -0.00   0.01
    38   6     0.01   0.01   0.00    -0.02  -0.09  -0.01    -0.06  -0.02   0.01
    39   6     0.01  -0.01  -0.01    -0.07  -0.02  -0.01    -0.07   0.08   0.03
    40   6     0.01  -0.02  -0.01    -0.16   0.11   0.08    -0.12   0.17   0.03
    41   6    -0.01   0.00   0.01     0.10   0.07  -0.02    -0.01  -0.07   0.04
    42   6     0.02   0.00   0.01    -0.00  -0.01  -0.05     0.12   0.01   0.12
    43   6     0.02   0.00   0.02    -0.03  -0.08  -0.08     0.09   0.02   0.10
    44   6     0.02  -0.00   0.00    -0.00  -0.06  -0.00     0.11  -0.00   0.09
    45   6     0.01  -0.00  -0.03    -0.00  -0.02   0.00     0.06  -0.00  -0.10
    46   6     0.00   0.01  -0.03     0.02  -0.02   0.01     0.05   0.02  -0.12
    47   6    -0.01   0.02  -0.00     0.15   0.11  -0.07    -0.10  -0.16   0.03
    48   6    -0.03   0.00   0.00     0.16   0.11  -0.10    -0.02  -0.07  -0.03
    49   6    -0.01   0.00  -0.01     0.05   0.05  -0.03     0.07   0.01  -0.15
    50   6    -0.01  -0.00  -0.01    -0.05   0.05   0.03     0.07  -0.01  -0.15
    51   6     0.00  -0.01  -0.03    -0.02  -0.02  -0.01     0.05  -0.02  -0.12
    52   6     0.01  -0.02  -0.02    -0.03  -0.07  -0.08    -0.01   0.03  -0.02
    53   6     0.02  -0.00  -0.00    -0.05  -0.12  -0.13    -0.00  -0.03   0.02
    54   6     0.02   0.01   0.00    -0.00  -0.09  -0.08    -0.08  -0.10  -0.01
    55   6     0.01   0.02   0.00     0.11   0.07  -0.05    -0.12  -0.17   0.02
    56   6    -0.01  -0.00  -0.00    -0.15   0.11   0.10    -0.03   0.07  -0.03
    57   6    -0.01   0.00  -0.00     0.15   0.11  -0.10    -0.03  -0.07  -0.03
    58   6     0.02   0.00  -0.00     0.05  -0.12   0.13    -0.00   0.03   0.02
    59   6    -0.06   0.01   0.01    -0.12   0.11   0.05     0.01   0.01  -0.00
    60   6    -0.06  -0.01   0.01     0.12   0.11  -0.05     0.01  -0.01  -0.00
    61   6    -0.08   0.01   0.10     0.01   0.01   0.01     0.05  -0.00  -0.01
    62   6    -0.08  -0.01   0.10    -0.01   0.01  -0.01     0.05   0.00  -0.01
    63   6     0.01   0.22  -0.05     0.01   0.01   0.01    -0.01  -0.00   0.01
    64   1     0.07   0.19  -0.28     0.01   0.01   0.01    -0.05  -0.00   0.02
    65   1     0.04   0.42   0.04     0.01   0.00   0.01    -0.03  -0.04  -0.02
    66   1     0.01   0.20  -0.05     0.01   0.00   0.00    -0.01   0.04   0.04
    67   6     0.01  -0.22  -0.05    -0.01   0.01  -0.01    -0.01   0.00   0.01
    68   1     0.01  -0.20  -0.05    -0.01   0.00  -0.00    -0.01  -0.04   0.04
    69   1     0.04  -0.42   0.04    -0.01   0.00  -0.01    -0.03   0.04  -0.02
    70   1     0.07  -0.19  -0.28    -0.01   0.01  -0.01    -0.05   0.00   0.02
    71   6     0.02   0.08  -0.01     0.01   0.01  -0.01     0.01   0.01  -0.00
    72   1    -0.03   0.16   0.04    -0.06   0.02   0.01     0.03   0.01  -0.01
    73   1     0.08   0.06  -0.14     0.01   0.01  -0.01    -0.02   0.01   0.01
    74   6     0.02  -0.08  -0.01    -0.01   0.01   0.01     0.01  -0.01  -0.00
    75   1     0.08  -0.06  -0.14    -0.01   0.01   0.01    -0.02  -0.01   0.01
    76   1    -0.03  -0.16   0.04     0.06   0.02  -0.01     0.03  -0.01  -0.01
                     19                     20                     21
                      A                      A                      A
 Frequencies --    333.8249               335.5310               339.1843
 Red. masses --     11.9926                11.9888                11.9898
 Frc consts  --      0.7874                 0.7952                 0.8127
 IR Inten    --      0.0000                 0.0000                 0.0000
  Atom  AN      X      Y      Z        X      Y      Z        X      Y      Z
     1   6     0.03  -0.15   0.08     0.08  -0.05   0.05     0.02  -0.04   0.13
     2   6     0.00  -0.15   0.08     0.04   0.09  -0.07    -0.00  -0.09   0.18
     3   6     0.03  -0.03  -0.10     0.01   0.07  -0.08    -0.05  -0.10   0.18
     4   6    -0.01   0.00  -0.17    -0.00   0.05   0.00    -0.00  -0.08   0.00
     5   6    -0.04  -0.00  -0.15    -0.00  -0.05   0.00    -0.00  -0.05  -0.00
     6   6    -0.06  -0.04  -0.07     0.10  -0.08   0.10     0.07  -0.06   0.09
     7   6     0.05  -0.16   0.08     0.09  -0.04   0.03    -0.02   0.13   0.03
     8   6     0.02  -0.13   0.10     0.04   0.11  -0.02    -0.02   0.24  -0.00
     9   6    -0.02  -0.17   0.10     0.04   0.15  -0.08    -0.01   0.07   0.06
    10   6     0.00  -0.07   0.05    -0.00   0.04  -0.07    -0.01   0.02   0.03
    11   6     0.06  -0.00  -0.10     0.02   0.04  -0.07    -0.04  -0.09   0.09
    12   6     0.03   0.03  -0.10    -0.01   0.07   0.08     0.05  -0.10  -0.18
    13   6     0.00   0.15   0.08    -0.04   0.09   0.07     0.00  -0.09  -0.18
    14   6     0.03   0.15   0.08    -0.08  -0.05  -0.05    -0.02  -0.04  -0.13
    15   6    -0.06   0.04  -0.07    -0.10  -0.08  -0.10    -0.07  -0.06  -0.09
    16   6    -0.08   0.00  -0.05    -0.13  -0.11  -0.08    -0.03  -0.05  -0.02
    17   6    -0.08  -0.00  -0.05     0.13  -0.11   0.08     0.03  -0.05   0.02
    18   6    -0.02  -0.02  -0.01     0.18  -0.10   0.06     0.03   0.00  -0.01
    19   6     0.00  -0.04   0.05     0.14  -0.08   0.05    -0.04   0.07  -0.01
    20   6     0.02   0.13   0.10    -0.05   0.10   0.02     0.01   0.24   0.00
    21   6    -0.02   0.17   0.11    -0.04   0.14   0.08     0.00   0.07  -0.06
    22   6     0.00   0.06   0.05    -0.01   0.04   0.07     0.01   0.03  -0.03
    23   6     0.01   0.03  -0.02    -0.01   0.02   0.06     0.08  -0.03  -0.06
    24   6     0.00   0.00  -0.02     0.05  -0.04   0.04     0.04  -0.01  -0.03
    25   6     0.00  -0.00  -0.02    -0.05  -0.04  -0.04    -0.04  -0.01   0.03
    26   6    -0.02   0.02  -0.01    -0.18  -0.10  -0.06    -0.03   0.00   0.01
    27   6     0.00   0.04   0.05    -0.13  -0.08  -0.05     0.04   0.07   0.01
    28   6     0.05   0.16   0.08    -0.09  -0.04  -0.03     0.02   0.13  -0.03
    29   6     0.06   0.00  -0.10    -0.02   0.04   0.07     0.04  -0.09  -0.09
    30   6     0.05  -0.16   0.08     0.09  -0.04   0.03    -0.01   0.12   0.03
    31   6     0.01  -0.04   0.05     0.14  -0.09   0.05    -0.03   0.06  -0.01
    32   6    -0.01  -0.02  -0.02     0.18  -0.10   0.06     0.02   0.00  -0.01
    33   6    -0.08  -0.00  -0.06     0.10  -0.10   0.06     0.03  -0.05   0.02
    34   6    -0.06  -0.04  -0.08     0.09  -0.07   0.09     0.07  -0.06   0.09
    35   6     0.00  -0.15   0.08     0.05   0.09  -0.07     0.01  -0.09   0.18
    36   6    -0.02  -0.17   0.11     0.04   0.14  -0.08    -0.00   0.07   0.06
    37   6     0.02  -0.13   0.10     0.05   0.10  -0.02    -0.01   0.24  -0.00
    38   6     0.02   0.13   0.10    -0.04   0.11   0.02     0.02   0.24   0.00
    39   6    -0.02   0.17   0.10    -0.04   0.15   0.08     0.01   0.07  -0.06
    40   6     0.00   0.07   0.05     0.00   0.04   0.07     0.01   0.02  -0.03
    41   6    -0.01   0.02  -0.02    -0.18  -0.10  -0.06    -0.02   0.00   0.01
    42   6    -0.08   0.00  -0.06    -0.10  -0.10  -0.06    -0.03  -0.05  -0.02
    43   6    -0.06   0.04  -0.08    -0.09  -0.07  -0.09    -0.07  -0.06  -0.09
    44   6    -0.05  -0.00  -0.15    -0.00  -0.05   0.00    -0.00  -0.05  -0.00
    45   6    -0.02   0.00  -0.17    -0.00   0.05   0.00    -0.00  -0.08   0.00
    46   6     0.03  -0.04  -0.10     0.02   0.07  -0.08    -0.05  -0.10   0.17
    47   6     0.00  -0.06   0.05     0.01   0.04  -0.07    -0.01   0.03   0.03
    48   6     0.01  -0.03  -0.02     0.01   0.02  -0.06    -0.08  -0.03   0.06
    49   6     0.06  -0.00  -0.10     0.02   0.04  -0.07    -0.04  -0.09   0.08
    50   6     0.06   0.00  -0.10    -0.02   0.04   0.07     0.04  -0.09  -0.08
    51   6     0.02   0.04  -0.10    -0.02   0.07   0.08     0.05  -0.10  -0.17
    52   6     0.00   0.15   0.08    -0.05   0.09   0.07    -0.01  -0.09  -0.18
    53   6     0.03   0.15   0.08    -0.08  -0.05  -0.05    -0.03  -0.05  -0.14
    54   6     0.05   0.16   0.08    -0.09  -0.04  -0.03     0.01   0.12  -0.03
    55   6     0.01   0.04   0.05    -0.14  -0.09  -0.05     0.03   0.06   0.01
    56   6     0.01   0.03  -0.02    -0.01   0.02   0.06     0.07  -0.03  -0.06
    57   6     0.01  -0.03  -0.02     0.01   0.02  -0.06    -0.07  -0.03   0.06
    58   6     0.03  -0.15   0.08     0.08  -0.05   0.05     0.03  -0.05   0.14
    59   6     0.00   0.00  -0.02     0.07  -0.05   0.04     0.02  -0.00  -0.02
    60   6     0.00  -0.00  -0.02    -0.07  -0.05  -0.04    -0.02  -0.00   0.02
    61   6    -0.00  -0.00  -0.00    -0.01  -0.01   0.00    -0.00  -0.00  -0.00
    62   6    -0.00   0.00  -0.00     0.01  -0.01  -0.00     0.00  -0.00   0.00
    63   6     0.00  -0.00  -0.00     0.00  -0.00  -0.00    -0.00  -0.00  -0.00
    64   1     0.01  -0.00   0.00     0.00  -0.00  -0.01    -0.01  -0.00   0.00
    65   1     0.00  -0.00   0.00     0.00   0.00   0.00    -0.00  -0.01  -0.00
    66   1     0.00  -0.01  -0.00     0.00  -0.00  -0.01    -0.00  -0.00   0.00
    67   6     0.00   0.00  -0.00    -0.00  -0.00   0.00     0.00  -0.00   0.00
    68   1     0.00   0.01  -0.00    -0.00  -0.00   0.01     0.00  -0.00  -0.00
    69   1     0.00   0.00   0.00    -0.00   0.00  -0.00     0.00  -0.01   0.00
    70   1     0.01   0.00   0.00    -0.00  -0.00   0.01     0.01  -0.00  -0.00
    71   6     0.00  -0.00  -0.00    -0.00  -0.01   0.00    -0.01  -0.00   0.00
    72   1     0.01  -0.00  -0.00     0.01  -0.01  -0.00     0.01  -0.00  -0.00
    73   1     0.00  -0.00  -0.00     0.00  -0.01   0.00    -0.01  -0.00   0.01
    74   6     0.00   0.00  -0.00     0.00  -0.01  -0.00     0.01  -0.00  -0.00
    75   1     0.00   0.00  -0.00    -0.00  -0.01  -0.00     0.01  -0.00  -0.01
    76   1     0.01   0.00  -0.00    -0.01  -0.01   0.00    -0.01  -0.00   0.00
                     22                     23                     24
                      A                      A                      A
 Frequencies --    341.8292               362.3269               390.8598
 Red. masses --     11.9171                 4.8163                11.9888
 Frc consts  --      0.8204                 0.3725                 1.0791
 IR Inten    --      0.0000                 0.0000                 0.0000
  Atom  AN      X      Y      Z        X      Y      Z        X      Y      Z
     1   6     0.01  -0.04   0.06     0.03  -0.00  -0.00     0.18   0.01  -0.08
     2   6     0.02  -0.04   0.06     0.02   0.03  -0.06     0.18  -0.04  -0.03
     3   6     0.07  -0.01   0.07    -0.01   0.02  -0.06     0.09  -0.10   0.00
     4   6     0.05   0.00   0.22    -0.00  -0.00  -0.05     0.00  -0.06   0.00
     5   6     0.06   0.00   0.22     0.01  -0.00   0.03     0.00   0.00  -0.00
     6   6    -0.03  -0.01   0.10     0.03  -0.01   0.05     0.10   0.07  -0.06
     7   6    -0.01   0.03   0.00     0.03  -0.04   0.01     0.12   0.01  -0.08
     8   6     0.00   0.01   0.02     0.02   0.01  -0.01     0.09  -0.00  -0.03
     9   6     0.01   0.03   0.00     0.01   0.05  -0.05     0.12  -0.00  -0.01
    10   6     0.03   0.03  -0.07    -0.01   0.04  -0.01     0.07  -0.01   0.04
    11   6     0.16   0.02  -0.13    -0.03   0.00  -0.01     0.05  -0.13   0.04
    12   6     0.07   0.01   0.07    -0.01  -0.02  -0.06    -0.09  -0.10  -0.00
    13   6     0.02   0.04   0.06     0.02  -0.03  -0.06    -0.18  -0.04   0.03
    14   6     0.01   0.04   0.06     0.03   0.00  -0.00    -0.18   0.01   0.08
    15   6    -0.03   0.01   0.10     0.03   0.01   0.05    -0.09   0.07   0.06
    16   6    -0.19  -0.02  -0.05     0.01   0.00   0.03    -0.04   0.14   0.06
    17   6    -0.19   0.02  -0.05     0.01  -0.00   0.03     0.04   0.14  -0.06
    18   6    -0.15   0.07  -0.06    -0.05  -0.01   0.02     0.05   0.08  -0.05
    19   6    -0.06   0.04  -0.05     0.02  -0.05   0.00     0.08   0.05  -0.07
    20   6     0.00  -0.01   0.02     0.02   0.01  -0.01    -0.09  -0.01   0.02
    21   6     0.01  -0.02   0.01     0.02  -0.03  -0.03    -0.13   0.01   0.02
    22   6     0.03  -0.03  -0.07     0.02  -0.05  -0.01    -0.07  -0.01  -0.04
    23   6     0.12  -0.07  -0.12    -0.04  -0.01   0.00    -0.01  -0.05  -0.03
    24   6    -0.01  -0.00  -0.07    -0.11   0.01   0.03     0.02   0.02  -0.06
    25   6    -0.01   0.00  -0.07    -0.11  -0.01   0.03    -0.02   0.02   0.06
    26   6    -0.15  -0.07  -0.06    -0.05   0.01   0.02    -0.05   0.08   0.05
    27   6    -0.06  -0.04  -0.05     0.02   0.05   0.00    -0.08   0.05   0.07
    28   6    -0.01  -0.03   0.00     0.03   0.04   0.01    -0.12   0.01   0.08
    29   6     0.16  -0.02  -0.13    -0.03  -0.00  -0.01    -0.05  -0.13  -0.04
    30   6    -0.01   0.03   0.00     0.03  -0.06   0.03     0.14  -0.03  -0.06
    31   6    -0.06   0.04  -0.05    -0.01  -0.04   0.00     0.07   0.04  -0.07
    32   6    -0.14   0.06  -0.06    -0.07  -0.00   0.02     0.01   0.10  -0.06
    33   6    -0.20   0.02  -0.05    -0.05  -0.00   0.02     0.05   0.14  -0.06
    34   6    -0.04  -0.01   0.09     0.01  -0.02   0.06     0.11   0.05  -0.05
    35   6     0.01  -0.04   0.07     0.02  -0.01  -0.01     0.20  -0.03  -0.04
    36   6     0.01   0.02   0.01     0.02   0.03  -0.03     0.13   0.01  -0.02
    37   6     0.00   0.01   0.02     0.02  -0.01  -0.01     0.09  -0.01  -0.02
    38   6     0.00  -0.01   0.02     0.02  -0.01  -0.01    -0.09  -0.00   0.03
    39   6     0.01  -0.03   0.00     0.01  -0.05  -0.05    -0.12  -0.00   0.01
    40   6     0.03  -0.03  -0.07    -0.01  -0.04  -0.01    -0.07  -0.01  -0.04
    41   6    -0.14  -0.06  -0.06    -0.07   0.00   0.02    -0.01   0.10   0.06
    42   6    -0.20  -0.02  -0.05    -0.05   0.00   0.02    -0.05   0.14   0.06
    43   6    -0.04   0.01   0.09     0.01   0.02   0.06    -0.11   0.05   0.05
    44   6     0.04   0.00   0.22     0.02  -0.00   0.06     0.00  -0.01  -0.00
    45   6     0.04   0.00   0.23     0.00  -0.00  -0.01     0.00  -0.06   0.00
    46   6     0.07  -0.01   0.08     0.02   0.00  -0.05     0.10  -0.10  -0.02
    47   6     0.03   0.03  -0.07     0.02   0.05  -0.01     0.07  -0.01   0.04
    48   6     0.12   0.07  -0.12    -0.04   0.01   0.00     0.01  -0.05   0.03
    49   6     0.16   0.02  -0.12     0.01   0.00  -0.03     0.05  -0.13   0.02
    50   6     0.16  -0.02  -0.12     0.01  -0.00  -0.03    -0.05  -0.13  -0.02
    51   6     0.07   0.01   0.08     0.02  -0.00  -0.05    -0.10  -0.10   0.02
    52   6     0.01   0.04   0.07     0.02   0.01  -0.01    -0.20  -0.03   0.04
    53   6     0.01   0.04   0.06     0.04   0.05   0.04    -0.20  -0.01   0.06
    54   6    -0.01  -0.03   0.00     0.03   0.06   0.03    -0.14  -0.03   0.06
    55   6    -0.06  -0.04  -0.05    -0.01   0.04   0.00    -0.07   0.04   0.07
    56   6     0.11  -0.06  -0.12    -0.05  -0.00   0.01    -0.03  -0.05  -0.03
    57   6     0.11   0.06  -0.12    -0.05   0.00   0.01     0.03  -0.05   0.03
    58   6     0.01  -0.04   0.06     0.04  -0.05   0.04     0.20  -0.01  -0.06
    59   6    -0.01  -0.00  -0.07    -0.07   0.00   0.02    -0.03   0.04  -0.06
    60   6    -0.01   0.00  -0.07    -0.07  -0.00   0.02     0.03   0.04   0.06
    61   6    -0.02  -0.00   0.00     0.25   0.00  -0.08     0.00  -0.00   0.00
    62   6    -0.02   0.00   0.00     0.25  -0.00  -0.08    -0.00  -0.00  -0.00
    63   6     0.01  -0.00  -0.00    -0.04   0.02   0.02    -0.00   0.00  -0.00
    64   1     0.03  -0.00  -0.01    -0.28   0.01   0.08    -0.01   0.00  -0.01
    65   1     0.02   0.01   0.01    -0.14  -0.18  -0.12    -0.00   0.01  -0.00
    66   1     0.01  -0.03  -0.03    -0.03   0.24   0.20    -0.00   0.01   0.00
    67   6     0.01   0.00  -0.00    -0.04  -0.02   0.02     0.00   0.00   0.00
    68   1     0.01   0.03  -0.03    -0.03  -0.24   0.20     0.00   0.01  -0.00
    69   1     0.02  -0.01   0.01    -0.14   0.18  -0.12     0.00   0.01   0.00
    70   1     0.03   0.00  -0.01    -0.28  -0.01   0.08     0.01   0.00   0.01
    71   6     0.00  -0.01  -0.00    -0.05   0.05   0.04    -0.00   0.00  -0.00
[...]
 44,-0.00016035,0.00004169,0.00007291,-0.00010868,-0.00008109,0.0000598
 4,0.00011021,-0.00001169,-0.00008905,-0.00004368,-0.00005835,-0.000002
 16,0.00013390,-0.00039761,-0.00034619,0.00028471,-0.00001059,0.0005239
 4,-0.00028551,0.00050969,-0.00016501,0.00086874,-0.00000763,0.00028583
 ,0.00235761,-0.00056493,-0.00071112,0.00032820,0.00045786,-0.00010765,
 -0.00304392,0.00503151,-0.00101296,-0.00981797,-0.00429427,-0.00445574
 ,0.13154319,-0.13583851,-0.29203170,-0.00206874,-0.03168206,0.00829514
 ,0.01622135,-0.00928240,-0.03420418,-0.00004997,-0.00196926,0.00038642
 ,0.00103614,0.00133203,-0.00243517,0.00081617,0.00159179,-0.00277849,0
 .00059704,0.00039427,0.00094922,-0.00004197,0.00000761,-0.00015185,0.0
 0000384,0.00015952,-0.00002511,0.00002014,0.00010856,-0.00002432,0.007
 82726,0.00546132,-0.00809351,-0.00033194,0.00251428,0.00011182,-0.0001
 3945,0.00028373,-0.00013774,-0.19683702,0.05151901,0.63936566,-0.00000
 300,0.00002105,-0.00002328,0.00002989,0.00005374,-0.00004391,0.0000664
 9,-0.00001457,-0.00000876,-0.00001121,-0.00001618,-0.00000343,0.000024
 64,-0.00001180,0.00000040,0.00000465,0.00002674,-0.00001577,0.00000498
 ,-0.00000780,0.00002626,0.00001891,0.00000182,-0.00002389,-0.00018656,
 0.00003133,0.00009304,-0.00008176,0.00002008,0.00009292,-0.00011612,0.
 00000247,0.00003729,0.00005929,0.00004826,0.00000234,-0.00002580,-0.00
 002599,-0.00000858,0.00003441,0.00000149,0.00000255,-0.00001339,0.0000
 1000,0.00000373,0.00000848,-0.00000503,0.00005813,0.00000777,0.0000110
 4,-0.00004083,0.00000246,0.00000739,-0.00000630,0.00001227,0.00000199,
 0.00001329,0.00000971,0.00000361,0.00002560,0.00000309,-0.00000703,-0.
 00001977,0.00001659,0.00000052,-0.00000699,0.00000142,0.00000550,0.000
 00295,-0.00000257,0.00000904,0.00003952,0.00000352,-0.00000101,-0.0000
 3822,-0.00000226,0.00000309,-0.00000397,0.00000401,-0.00000184,0.00000
 623,-0.00000571,-0.00000015,-0.00001028,0.00003955,-0.00006298,-0.0000
 3132,0.00000914,0.00000237,0.00000894,-0.00003707,-0.00003750,-0.00000
 376,-0.00010737,0.00000368,0.00006358,0.00002337,-0.00003804,-0.000000
 59,0.00003677,0.00002109,0.00000277,0.00002581,0.00000211,0.00000958,-
 0.00000481,0.00000039,0.00000459,-0.00000441,-0.00000564,0.00000598,-0
 .00000018,-0.00000035,-0.00000554,0.00000927,0.00000298,-0.00000282,-0
 .00002265,-0.00001754,0.00000927,0.00001149,-0.00015124,-0.00017300,-0
 .00005582,0.00005269,0.00000336,0.00003814,-0.00001500,0.00003830,-0.0
 0001155,-0.00000158,-0.00000970,0.00001034,-0.00001441,0.00000875,-0.0
 0000724,0.00001012,-0.00001041,0.00000486,-0.00000028,-0.00000464,0.00
 000080,0.00000313,0.00000377,0.00000653,-0.00000715,-0.00000354,0.0000
 1002,0.00001091,-0.00000512,-0.00000219,0.00002177,0.00001782,-0.00000
 560,0.00002204,0.00001590,0.00001875,0.00003982,0.00006534,-0.00011458
 ,0.00002337,-0.00012349,0.00000556,-0.00005756,-0.00016645,-0.00009250
 ,0.00002937,-0.00008108,-0.00016774,-0.00020668,0.00015462,-0.00003274
 ,-0.00002396,-0.00000500,-0.00020783,-0.00080048,-0.00000278,0.0006977
 3,-0.00185967,0.00037119,-0.00022078,0.01224023,0.00007275,0.00756536,
 0.00129804,0.00568171,-0.00337373,0.00067220,-0.00213964,-0.00017721,-
 0.00025540,0.00065394,0.00016971,0.00015583,-0.00085454,-0.00025464,-0
 .00014916,0.00056552,0.00000366,0.00095262,-0.00007503,0.00003994,0.00
 001728,-0.00004912,-0.00003179,-0.00005061,-0.00008873,-0.00017608,0.0
 0019499,0.00014877,-0.00084451,-0.00062473,-0.00013920,0.00020094,0.00
 004311,0.00004258,-0.00048644,0.00009290,-0.00028258,-0.03306599,0.015
 80827,0.00287369,0.02819617,-0.00002828,0.00000426,-0.00001567,0.00004
 327,0.00003515,-0.00004765,0.00010391,0.00004495,-0.00005552,-0.000006
 50,-0.00004871,0.00000030,0.00002684,0.00000074,-0.00000638,0.00001914
 ,0.00003358,-0.00002331,0.00000073,-0.00001051,0.00002782,0.00007161,-
 0.00001849,-0.00002619,-0.00016609,-0.00002945,0.00005108,-0.00006012,
 0.00023198,0.00002495,-0.00016351,-0.00020537,0.00012799,-0.00002391,0
 .00002172,0.00001357,0.00000205,0.00002438,0.00000415,0.00001405,0.000
 01474,0.00000264,0.00000656,0.00000175,0.00001361,-0.00004094,0.000012
 25,-0.00007439,0.00005532,0.00000065,0.00009469,0.00000258,0.00000268,
 0.00000024,0.00002389,0.00000685,0.00002292,0.00005746,-0.00002997,0.0
 0004315,0.00001923,-0.00001366,-0.00002462,0.00003728,0.00001263,-0.00
 001330,0.00000525,0.00000150,0.00000080,-0.00003812,0.00001908,-0.0000
 6749,0.00003381,-0.00000388,0.00006980,-0.00000600,0.00000244,0.000007
 00,-0.00000209,-0.00000860,0.00000796,0.00001265,-0.00000186,-0.000000
 40,0.00010933,-0.00000886,-0.00009261,0.00004339,0.00002486,0.00004655
 ,-0.00001083,0.00000557,-0.00000231,0.00001171,0.00014207,0.00003338,0
 .00006458,-0.00002090,0.00009738,-0.00001032,0.00002690,-0.00001462,0.
 00001600,0.00001234,0.00000488,0.00001380,-0.00000381,0.00000761,-0.00
 000968,-0.00000190,0.00000799,-0.00000467,-0.00000146,-0.00000571,0.00
 004093,0.00002300,-0.00001493,0.00000380,0.00002710,-0.00000247,-0.000
 03956,0.00001756,-0.00027647,-0.00013257,-0.00023502,-0.00018851,0.000
 04229,0.00005248,0.00007964,0.00000542,-0.00004962,0.00000930,0.000032
 62,-0.00000657,0.00001528,0.00000420,0.00000930,-0.00000705,-0.0000023
 0,-0.00000818,-0.00000510,-0.00000708,0.00000154,-0.00001371,0.0000117
 8,0.00001327,-0.00001060,0.00001034,-0.00000246,-0.00000021,0.00001645
 ,0.00004380,0.00003045,-0.00004113,0.00000317,0.00000284,0.00003925,0.
 00001538,0.00006435,-0.00013494,-0.00002987,-0.00010946,-0.00006482,0.
 00025356,-0.00005356,0.00003877,0.00013352,-0.00001550,-0.00016277,-0.
 00002096,0.00020546,0.00001544,0.00003981,-0.00001502,0.00017034,-0.00
 031153,-0.00005168,-0.00039169,-0.00081825,0.00009496,0.00237272,-0.02
 201250,-0.00130161,0.00267634,-0.00100633,-0.00202504,-0.00145301,0.00
 113021,0.00152833,0.00014654,0.00101328,-0.00041315,0.00005447,0.00001
 273,0.00021557,-0.00032510,-0.00002705,0.00039459,-0.00009744,-0.00093
 038,0.00000944,-0.00003074,0.00003716,0.00005323,-0.00000819,-0.000007
 75,0.00002744,0.00005530,-0.00007555,-0.00025482,-0.00003794,0.0000676
 9,-0.00028362,0.00012264,0.00022384,-0.00030358,-0.00009273,0.00009573
 ,-0.00014777,0.01811940,-0.30491868,0.01803561,-0.02179221,0.34113668,
 0.00002721,-0.00000002,0.00001158,0.00001657,0.00000731,-0.00002169,0.
 00000043,-0.00000951,-0.00001279,0.00002141,0.00001518,-0.00000290,-0.
 00001187,-0.00000409,-0.00000314,0.00000239,-0.00000380,0.00000165,-0.
 00002013,0.00000067,-0.00001822,0.00000559,-0.00000641,0.00000485,0.00
 004764,-0.00002566,-0.00003302,0.00007102,-0.00008912,0.00012501,-0.00
 000617,0.00012407,-0.00003961,-0.00002359,-0.00003020,0.00000811,-0.00
 000402,-0.00000518,-0.00000624,0.00000447,-0.00000172,-0.00000108,-0.0
 0000634,0.00000192,-0.00000005,0.00009205,-0.00000414,-0.00000064,-0.0
 0009095,0.00000190,-0.00000106,-0.00000202,-0.00000288,-0.00000646,0.0
 0000701,0.00000096,0.00000528,-0.00001114,0.00000687,0.00001292,0.0000
 2424,0.00000017,-0.00000684,0.00000242,-0.00000297,-0.00000309,0.00000
 178,0.00000527,0.00000425,0.00007253,0.00000219,0.00000560,-0.00007096
 ,-0.00000114,-0.00000132,-0.00000064,-0.00000055,-0.00000431,0.0000008
 5,-0.00000086,0.00000233,0.00000293,0.00000228,0.00000010,-0.00003278,
 -0.00003248,0.00002799,0.00001296,0.00000995,0.00000554,0.00000917,0.0
 0002362,0.00000601,-0.00005223,-0.00001835,-0.00005500,0.00002893,-0.0
 0005537,0.00005255,0.00002453,0.00002881,0.00001744,0.00001556,0.00000
 114,0.00000499,-0.00000413,-0.00000215,0.00000332,0.00000232,0.0000008
 2,0.00000310,0.00000610,0.00000233,-0.00000278,0.00001258,0.00000461,0
 .00000109,-0.00000870,-0.00001186,-0.00002810,-0.00010369,-0.00017419,
 -0.00008158,-0.00004180,-0.00004498,-0.00005738,0.00001393,-0.00000314
 ,-0.00002345,0.00000583,-0.00001473,0.00000529,0.00000479,-0.00000347,
 0.00000659,-0.00000120,0.00000532,-0.00000555,0.00000343,0.00000199,-0
 .00000177,0.00000591,0.00000100,0.00000209,0.00000371,-0.00000103,-0.0
 0000323,0.00000217,0.00000395,-0.00000275,0.00000220,0.00001148,0.0000
 0925,-0.00001829,0.00000182,0.00000050,-0.00001354,0.00002196,0.000000
 53,-0.00005228,0.00000526,-0.00008044,-0.00008135,0.00004547,0.0001278
 3,-0.00008160,-0.00009126,-0.00000144,0.00005084,0.00015774,0.00000894
 ,-0.00000810,-0.00000891,0.00000969,-0.00001405,-0.00024747,-0.0001281
 9,0.00006982,-0.00049900,0.00019152,0.00216060,-0.02248539,-0.00017128
 ,0.00493174,-0.00129676,-0.00158416,-0.00136868,-0.00207342,0.00001650
 ,0.00069224,0.00031415,-0.00114818,0.00009885,0.00004944,-0.00024297,-
 0.00022824,0.00005221,0.00023916,-0.00008958,-0.00104204,-0.00004471,-
 0.00006598,0.00002729,0.00007607,-0.00000119,-0.00000752,0.00008157,0.
 00000539,-0.00019537,-0.00021099,-0.00021983,0.00047083,-0.00013743,0.
 00005440,-0.00027001,0.00031750,-0.00028223,0.00014784,0.00005537,0.00
 308895,0.01973091,-0.04342057,-0.00834571,-0.01806888,0.04922763,-0.00
 002851,-0.00001113,0.00000444,0.00005396,-0.00008189,0.00003733,-0.000
 13719,0.00007560,0.00002285,0.00010513,-0.00003519,-0.00000490,0.00000
 500,0.00001151,0.00000305,0.00003535,0.00000349,0.00000585,0.00002060,
 0.00000757,0.00001721,0.00000961,0.00000263,-0.00000150,0.00002228,-0.
 00002108,-0.00004052,-0.00015978,0.00019127,-0.00012963,-0.00028089,-0
 .00015765,0.00019251,-0.00016385,0.00000412,0.00002721,0.00006591,0.00
 010316,0.00004041,-0.00002336,0.00001766,0.00001225,0.00003673,-0.0000
 0262,0.00001219,-0.00002328,0.00002299,0.00001017,-0.00001495,-0.00001
 531,-0.00003337,0.00000641,-0.00000551,0.00000996,0.00001436,0.0000020
 4,-0.00000198,0.00000685,-0.00000826,0.00002496,-0.00001748,-0.0000004
 7,-0.00000380,0.00001633,0.00000593,0.00001089,0.00000359,-0.00001341,
 -0.00002628,0.00000115,-0.00000717,0.00001851,-0.00000564,0.00001216,-
 0.00001488,0.00000124,0.00000956,0.00001213,0.00000202,-0.00000504,0.0
 0000069,0.00001411,-0.00000396,0.00000638,0.00006574,-0.00007837,0.000
 02317,0.00003737,0.00000120,0.00005580,0.00003670,0.00006041,0.0000271
 9,0.00007627,0.00006598,0.00009045,0.00003474,0.00026161,0.00009240,-0
 .00010758,-0.00003539,-0.00006742,-0.00002205,0.00001204,-0.00001358,0
 .00000154,-0.00000170,-0.00000261,0.00000513,0.00000816,0.00000165,-0.
 00000384,-0.00000358,0.00000470,0.00008910,0.00003746,-0.00004154,-0.0
 0002902,-0.00004208,-0.00002186,0.00018258,-0.00045307,0.00096251,0.00
 007000,-0.00037562,-0.00032680,0.00001678,0.00002314,0.00005041,0.0000
 0413,-0.00004425,-0.00002622,-0.00002740,0.00001595,0.00000740,0.00002
 458,-0.00000003,0.00000556,-0.00000431,-0.00000044,0.00000131,0.000005
 22,0.00000388,-0.00001177,-0.00002087,0.00001200,0.00000837,-0.0000203
 0,-0.00000331,0.00002466,0.00002156,-0.00001183,-0.00001660,0.00001011
 ,-0.00000984,-0.00000048,-0.00000697,-0.00002191,-0.00007464,0.0000462
 7,-0.00003116,0.00013557,-0.00007813,0.00020824,0.00007151,0.00011342,
 -0.00008213,0.00004172,-0.00096135,0.00015281,-0.00079996,0.00003654,0
 .00006268,-0.00000882,-0.00082687,0.00120473,-0.00079475,-0.00767388,-
 0.00213122,-0.00500465,-0.00697427,-0.00047572,0.01496977,-0.00377928,
 -0.00276489,-0.00053663,0.00808849,0.00171350,0.00511574,0.00003049,0.
 00026946,-0.00013653,-0.00076259,-0.00072794,0.00225468,0.00065945,0.0
 0058108,-0.00126535,-0.00025082,-0.00005169,0.00000723,0.00002234,0.00
 000459,0.00004673,-0.00002683,-0.00005042,-0.00010424,0.00004666,-0.00
 002197,-0.00004234,0.00160327,0.00010444,-0.00033134,0.00085240,0.0000
 7873,-0.00026638,0.00020070,-0.00012266,0.00005449,-0.03408612,-0.0207
 8355,0.04942872,0.00251732,0.00061180,-0.00034447,0.04119788,0.0000221
 8,0.00000268,0.00001067,0.00002790,-0.00003193,0.00001694,-0.00000609,
 -0.00004875,-0.00001110,0.00001054,0.00003820,-0.00000316,-0.00000621,
 -0.00000583,0.00000327,-0.00001115,-0.00001431,-0.00000225,-0.00002837
 ,0.00000251,-0.00001908,-0.00000947,0.00000685,0.00000939,-0.00000080,
 -0.00000304,-0.00004224,0.00002795,-0.00015055,0.00014305,0.00004117,0
 .00016400,-0.00012272,-0.00005019,-0.00007015,0.00000497,0.00000607,0.
 00001316,0.00001512,-0.00001110,-0.00000076,-0.00000884,0.00000546,-0.
 00000659,0.00000545,-0.00008733,-0.00000013,-0.00008994,0.00008592,0.0
 0000060,0.00008255,-0.00000512,-0.00000286,-0.00000217,0.00000422,-0.0
 0000179,-0.00000384,-0.00001728,0.00001023,-0.00000439,0.00001372,-0.0
 0000255,-0.00000250,0.00000106,-0.00000315,0.00000028,0.00001131,0.000
 00101,0.00000116,-0.00006522,0.00000179,-0.00006517,0.00006554,0.00000
 224,0.00006590,-0.00000010,-0.00000051,-0.00000028,-0.00000094,-0.0000
 0371,0.00000167,0.00001024,0.00000373,0.00001020,-0.00005233,0.0001122
 1,0.00009852,0.00000512,-0.00000034,0.00000176,0.00001650,0.00001992,0
 .00000775,-0.00007686,-0.00002991,-0.00002666,0.00002486,0.00000022,0.
 00003439,0.00002171,0.00001352,0.00002684,-0.00000350,0.00000364,0.000
 00118,0.00000079,-0.00000080,-0.00000430,0.00000836,0.00000215,0.00000
 083,0.00000899,0.00000734,-0.00000072,0.00002633,0.00000715,-0.0000036
 3,-0.00002530,-0.00008405,-0.00005839,0.00004522,-0.00020741,0.0000728
 8,-0.00003091,-0.00007713,-0.00007263,-0.00001624,0.00000076,-0.000033
 66,-0.00000136,-0.00000079,-0.00000214,0.00000652,0.00000287,0.0000075
 5,0.00000222,-0.00000177,-0.00000185,-0.00000024,0.00000033,-0.0000011
 4,-0.00000338,0.00000132,-0.00000725,0.00000159,0.00000487,-0.00000143
 ,0.00000062,0.00000135,0.00000040,0.00000544,0.00000039,0.00000701,-0.
 00000838,-0.00000351,-0.00000355,-0.00000579,-0.00001153,-0.00003003,-
 0.00003829,0.00000367,-0.00004843,-0.00004488,0.00008497,0.00005725,-0
 .00006505,-0.00007475,-0.00005146,0.00024947,0.00007895,-0.00000489,0.
 00000802,-0.00000436,0.00001224,-0.00041284,0.00001470,-0.00039454,-0.
 00108553,0.00021450,-0.00045698,0.00146897,0.00775856,-0.01050628,-0.0
 0092137,-0.00010980,0.00062332,0.00226999,-0.00070332,-0.00131382,0.00
 007862,0.00022401,-0.00007159,-0.00005970,0.00012964,-0.00001891,0.000
 26408,0.00051244,-0.00060219,0.00009857,-0.00007614,0.00015713,-0.0000
 3636,0.00003954,0.00003958,-0.00000511,0.00004076,0.00011260,0.0000101
 4,0.00001601,-0.00001180,0.00079834,-0.00256309,-0.00251336,-0.0000811
 3,-0.00410915,0.00066126,-0.00004261,0.00022392,0.00027002,-0.01945025
 ,-0.08645821,0.09764693,-0.00571688,-0.01416576,0.02554730,0.02272990,
 0.09926177,-0.00006839,0.00000652,-0.00001036,0.00008494,-0.00012659,0
 .00004394,-0.00003588,0.00003888,-0.00007002,0.00005078,-0.00001531,0.
 00000410,0.00004487,0.00000271,0.00002049,0.00003922,0.00001841,-0.000
 00679,-0.00001145,-0.00001683,0.00002257,0.00007197,-0.00001460,0.0000
 3611,-0.00002391,-0.00001510,-0.00004645,-0.00007997,0.00017194,-0.000
 19874,-0.00009763,-0.00035646,0.00021681,-0.00012756,-0.00005038,-0.00
 002308,0.00005127,0.00014500,0.00006211,-0.00003416,-0.00000427,-0.000
 01316,0.00002230,-0.00001468,0.00000457,0.00002655,0.00002465,0.000001
 26,-0.00005228,-0.00000781,-0.00001848,0.00000727,-0.00000709,0.000023
 68,0.00002184,0.00001340,0.00000876,0.00007890,-0.00002413,0.00000739,
 -0.00003399,-0.00000915,-0.00001851,0.00001968,0.00000365,0.00000333,0
 .00000098,-0.00000733,-0.00001132,0.00003170,0.00000163,-0.00000940,-0
 .00003891,0.00001500,-0.00000722,-0.00000588,0.00000349,0.00001504,0.0
 0000308,-0.00001740,0.00001022,0.00002888,0.00000495,0.00002823,0.0000
 7723,0.00023827,0.00003150,0.00005605,0.00001783,0.00006828,0.00002630
 ,0.00003532,0.00007206,0.00000717,0.00000005,-0.00015885,0.00006260,0.
 00019035,0.00016422,-0.00010069,-0.00006735,-0.00004823,-0.00004748,0.
 00000836,-0.00001134,0.00001951,0.00000561,-0.00001879,0.00003081,0.00
 001720,0.00000324,0.00001728,0.00000940,0.00001922,0.00010952,0.000034
 06,-0.00007615,-0.00001184,-0.00002380,-0.00009694,0.00005334,-0.00002
 455,-0.00004662,0.00001223,-0.00018239,-0.00002123,0.00003666,0.000043
 74,0.00008863,0.00000924,-0.00002007,-0.00000309,0.00000872,0.00001402
 ,0.00000411,0.00002462,-0.00002421,0.00000793,0.00000303,-0.00001049,-
 0.00000711,-0.00000089,0.00000334,-0.00001473,-0.00001165,0.00002199,0
 .00000337,-0.00000905,-0.00000686,0.00001402,0.00001927,0.00000810,0.0
 0000560,-0.00003126,-0.00000969,-0.00001785,0.00005695,-0.00004715,0.0
 0001237,-0.00001843,-0.00002097,0.00001701,0.00004828,0.00004611,0.000
 06476,0.00004690,-0.00005103,0.00011707,0.00017668,0.00012346,0.000312
 06,0.00005366,0.00007947,-0.00000037,-0.00085969,0.00013513,-0.0003271
 7,-0.00386755,-0.00079016,-0.00196974,0.00572724,0.01141337,-0.0227407
 7,-0.00118278,0.00008282,-0.00005002,0.00465483,-0.00254770,-0.0011471
 1,-0.00015126,-0.00065385,0.00034007,0.00015953,-0.00002907,0.00023814
 ,0.00040312,0.00050027,-0.00146600,-0.00018464,0.00003872,0.00025155,-
 0.00015844,0.00016883,0.00010046,0.00008054,0.00014514,0.00014293,-0.0
 0003689,-0.00006602,0.00012688,0.00077842,0.00072668,0.00011336,-0.000
 26638,-0.00065954,0.00148481,0.00004245,0.00030359,0.00031731,0.055986
 52,0.09764260,-0.25902034,0.00163081,0.00255598,-0.00308533,-0.0634548
 3,-0.10913802,0.28613174\\0.00000024,-0.00000040,-0.00000024,-0.000000
 09,-0.00000057,-0.00000107,-0.00000047,-0.00000007,-0.00000014,0.00000
 001,0.00000021,0.00000015,-0.00000005,-0.00000010,-0.00000022,0.000000
 94,-0.00000025,-0.00000059,0.00000034,-0.00000025,-0.00000015,0.000000
 40,-0.00000020,0.00000014,-0.00000013,-0.00000048,-0.00000041,-0.00000
 069,-0.00000004,0.00000011,-0.00000232,0.00000196,0.00000319,0.0000006
 7,-0.00000048,0.00000106,0.00000015,-0.00000055,0.00000046,-0.00000042
 ,-0.00000039,0.00000037,-0.00000055,-0.00000009,0.00000025,0.00001718,
 0.00000099,0.00000535,-0.00001764,0.00000167,-0.00000495,0.00000356,-0
 .00000145,-0.00000184,-0.00000086,0.00000114,0.00000050,-0.00000033,0.
 00000025,0.,0.00000022,0.00000012,0.00000053,-0.00000026,0.00000009,-0
 .00000031,-0.00000160,-0.00000008,-0.00000008,0.00000809,-0.00000046,0
 .00000432,-0.00000852,-0.00000049,-0.00000449,-0.00000319,-0.00000127,
 0.00000168,0.00000094,0.00000115,-0.00000045,-0.00000030,-0.00000037,0
 .00000010,0.00000148,0.00000233,-0.00000484,-0.00000067,0.00000032,0.0
 0000005,0.00000047,0.00000072,0.00000011,-0.00000051,0.00000018,0.0000
 0262,-0.00000032,-0.00000113,0.00000070,-0.00000078,0.00000001,-0.0000
 0011,-0.00000003,-0.00000025,-0.00000043,-0.00000031,-0.00000003,-0.00
 000040,0.00000038,0.00000008,-0.00000006,-0.00000043,-0.00000016,-0.00
 000007,-0.00000028,0.00000018,0.00000022,0.00000016,0.00000039,-0.0000
 0040,0.00000306,0.00000225,-0.00000179,-0.00000106,-0.00000030,0.00000
 016,0.00000124,0.00000030,-0.00000041,0.00000009,0.00000021,-0.0000002
 3,-0.00000021,-0.00000013,0.00000023,-0.00000020,0.00000017,0.00000044
 ,0.00000025,0.00000027,0.00000011,0.00000218,0.00000062,0.00000083,0.0
 0000109,0.00000026,-0.00000834,-0.00000098,0.00000090,0.00000772,0.000
 00014,-0.00000016,0.,0.00000003,-0.00000005,0.00000004,-0.00000011,0.0
 0000024,-0.00000015,0.00000020,-0.00000047,-0.00000007,-0.00000043,0.0
 0000041,-0.00000008,0.00000470,-0.00000466,0.00000628,-0.00000291,-0.0
 0000241,-0.00000392,-0.00000025,0.00000021,0.00000085,-0.00001237,-0.0
 0000173,0.00000190,0.00001161,0.00000650,-0.00000432,0.00000317,0.0000
 0291,0.00000692,0.00000106,-0.00000028,-0.00000079,-0.00000116,0.00000
 035,-0.00000038,0.,-0.00000009,0.00000003,-0.00000016,-0.00000039,-0.0
 0000012,0.00000027,-0.00000017,-0.00000006,-0.00000090,-0.00000041,-0.
 00000076,-0.00000061,-0.00000024,-0.00000023,-0.00000024,-0.00000011,0
 .00000010,0.00000011,-0.00000030,0.00000005,0.00000049,-0.00000208,0.0
 0000066,-0.00000153,0.00000057,-0.00000048,0.00000113,-0.00000034,-0.0
 0000024,-0.00000209,-0.00000403,-0.00000493,-0.00000083,-0.00000014,-0
 .00000006,0.00000076,0.00000007,0.00000038\\\@


 A people that values its privileges above its principles soon loses both.
 -- Dwight D. Eisenhower
 Job cpu time:       0 days  0 hours  0 minutes  0.6 seconds.
 Elapsed time:       0 days  0 hours  1 minutes 37.1 seconds.
 File lengths (MBytes):  RWF=     22 Int=      0 D2E=      0 Chk=      3 Scr=      2
 Normal termination of Gaussian 16 at Tue May 27 14:29:56 2025.
