 Entering Gaussian System, Link 0=/mlatom/software/Gaussian/g16-avx2/g16
 Input=gaussian.com
 Output=gaussian.log
 Initial command:
 /mlatom/software/Gaussian/g16-avx2/l1.exe "/mlatom/projects/yaohuang/ADL/C60/opt/al2/p/Gau-74299.inp" -scrdir="/mlatom/projects/yaohuang/ADL/C60/opt/al2/p/"
 Entering Link 1 = /mlatom/software/Gaussian/g16-avx2/l1.exe PID=     74300.
  
 Copyright (c) 1988,1990,1992,1993,1995,1998,2003,2009,2016,
            Gaussian, Inc.  All Rights Reserved.
  
 This is part of the Gaussian(R) 16 program.  It is based on
 the Gaussian(R) 09 system (copyright 2009, Gaussian, Inc.),
 the Gaussian(R) 03 system (copyright 2003, Gaussian, Inc.),
 the Gaussian(R) 98 system (copyright 1998, Gaussian, Inc.),
 the Gaussian(R) 94 system (copyright 1995, Gaussian, Inc.),
 the Gaussian 92(TM) system (copyright 1992, Gaussian, Inc.),
 the Gaussian 90(TM) system (copyright 1990, Gaussian, Inc.),
 the Gaussian 88(TM) system (copyright 1988, Gaussian, Inc.),
 the Gaussian 86(TM) system (copyright 1986, Carnegie Mellon
 University), and the Gaussian 82(TM) system (copyright 1983,
 Carnegie Mellon University). Gaussian is a federally registered
 trademark of Gaussian, Inc.
  
 This software contains proprietary and confidential information,
 including trade secrets, belonging to Gaussian, Inc.
  
 This software is provided under written license and may be
 used, copied, transmitted, or stored only in accord with that
 written license.
  
 The following legend is applicable only to US Government
 contracts under FAR:
  
                    RESTRICTED RIGHTS LEGEND
  
 Use, reproduction and disclosure by the US Government is
 subject to restrictions as set forth in subparagraphs (a)
 and (c) of the Commercial Computer Software - Restricted
 Rights clause in FAR 52.227-19.
  
 Gaussian, Inc.
 340 Quinnipiac St., Bldg. 40, Wallingford CT 06492
  
  
 ---------------------------------------------------------------
 Warning -- This program may not be used in any manner that
 competes with the business of Gaussian, Inc. or will provide
 assistance to any competitor of Gaussian, Inc.  The licensee
 of this program is prohibited from giving any competitor of
 Gaussian, Inc. access to this program.  By using this program,
 the user acknowledges that Gaussian, Inc. is engaged in the
 business of creating and licensing software in the field of
 computational chemistry and represents and warrants to the
 licensee that it is not a competitor of Gaussian, Inc. and that
 it will not use this program in any manner prohibited above.
 ---------------------------------------------------------------
  

 Cite this work as:
 Gaussian 16, Revision A.03,
 M. J. Frisch, G. W. Trucks, H. B. Schlegel, G. E. Scuseria, 
 M. A. Robb, J. R. Cheeseman, G. Scalmani, V. Barone, 
 G. A. Petersson, H. Nakatsuji, X. Li, M. Caricato, A. V. Marenich, 
 J. Bloino, B. G. Janesko, R. Gomperts, B. Mennucci, H. P. Hratchian, 
 J. V. Ortiz, A. F. Izmaylov, J. L. Sonnenberg, D. Williams-Young, 
 F. Ding, F. Lipparini, F. Egidi, J. Goings, B. Peng, A. Petrone, 
 T. Henderson, D. Ranasinghe, V. G. Zakrzewski, J. Gao, N. Rega, 
 G. Zheng, W. Liang, M. Hada, M. Ehara, K. Toyota, R. Fukuda, 
 J. Hasegawa, M. Ishida, T. Nakajima, Y. Honda, O. Kitao, H. Nakai, 
 T. Vreven, K. Throssell, J. A. Montgomery, Jr., J. E. Peralta, 
 F. Ogliaro, M. J. Bearpark, J. J. Heyd, E. N. Brothers, K. N. Kudin, 
 V. N. Staroverov, T. A. Keith, R. Kobayashi, J. Normand, 
 K. Raghavachari, A. P. Rendell, J. C. Burant, S. S. Iyengar, 
 J. Tomasi, M. Cossi, J. M. Millam, M. Klene, C. Adamo, R. Cammi, 
 J. W. Ochterski, R. L. Martin, K. Morokuma, O. Farkas, 
 J. B. Foresman, and D. J. Fox, Gaussian, Inc., Wallingford CT, 2016.
 
 ******************************************
 Gaussian 16:  ES64L-G16RevA.03 25-Dec-2016
                11-Jun-2025 
 ******************************************
 %nproc=1
 Will use up to    1 processors via shared memory.
 ----------------------------------------------------------------------
 #p Freq external='/mlatom/software/miniconda3/bin/python /mlatom/softw
 are/mlatom_xacs/mlatom/interfaces/gaussian_interface.py model_predict_
 kwargs'
 ----------------------------------------------------------------------
 1/10=4,18=10,30=1,38=1/1,3;
 2/12=2,17=6,18=5,40=1/2;
 3/11=9,25=1,30=1,41=9900000,43=2,71=2,140=1/1;
 4/20=17,22=2,24=3,113=1,114=1/2;
 6/7=2,8=2,9=2,10=2/1;
 7/8=1,25=1,44=-1/16;
 1/10=4,18=10,30=1/3;
 99//99;
 Leave Link    1 at Wed Jun 11 09:13:37 2025, MaxMem=           0 cpu:               0.0 elap:               0.0
 (Enter /mlatom/software/Gaussian/g16-avx2/l101.exe)
 ------------------------------------
 57eb4d3d-6c7e-4496-a83e-d90a40b8c152
 ------------------------------------
 Symbolic Z-matrix:
 Charge =  0 Multiplicity = 1
 C                    -1.92984   2.30002  -2.39115 
 C                    -0.50848   2.30191  -2.67107 
 C                     0.10488   1.17222  -3.2128 
 C                    -0.69212   0.       -3.51065 
 C                    -2.06139   0.       -3.25197 
 C                    -2.6928    1.17175  -2.67688 
 C                    -2.1434    3.02585  -1.1537 
 C                    -0.85125   3.47205  -0.66973 
 C                     0.15342   3.01756  -1.61124 
 C                     1.38804   2.56203  -1.1424 
 C                     1.39575   0.73761  -2.7316 
 C                     0.10488  -1.17222  -3.2128 
 C                    -0.50848  -2.3019   -2.67107 
 C                    -1.92984  -2.30002  -2.39116 
 C                    -2.6928   -1.17175  -2.67688 
 C                    -3.70384  -0.72449  -1.73918 
 C                    -3.70384   0.72449  -1.73918 
 C                    -3.90949   1.42097  -0.54997 
 C                    -3.11328   2.59491  -0.251 
 C                    -0.58118   3.47287   0.69586 
 C                    -1.5906    3.02606   1.63624 
 C                    -2.83128   2.59489   1.17173 
 C                    -3.45317   1.42093   1.75185 
 C                    -4.12059   0.69634   0.68803 
 C                    -4.12059  -0.69634   0.68803 
 C                    -3.90949  -1.42097  -0.54997 
 C                    -3.11328  -2.59491  -0.25101 
 C                    -2.14339  -3.02585  -1.1537 
 C                     1.39575  -0.73761  -2.7316 
 C                     0.70644  -3.01749   1.18243 
 C                     1.66799  -2.56103   0.27863 
 C                     2.47953  -1.41766   0.57272 
 C                     2.2871   -0.73835   1.74798 
 C                     1.27428  -1.17178   2.68238 
 C                    -0.92045  -2.29951   2.69803 
 C                    -1.5906   -3.02606   1.63624 
 C                    -0.58118  -3.47287   0.69586 
 C                    -0.85125  -3.47205  -0.66973 
 C                     0.15342  -3.01756  -1.61124 
 C                     1.38804  -2.56203  -1.1424 
 C                     2.47953   1.41766   0.57272 
 C                     2.2871    0.73835   1.74798 
 C                     1.27428   1.17178   2.68238 
 C                     0.65058  0.         3.26178 
 C                    -0.71401  0.         3.54466 
 C                    -1.51702  -1.17168   3.2538 
 C                    -2.83128  -2.59489   1.17172 
 C                    -3.45317  -1.42093   1.75185 
 C                    -2.80931  -0.72446   2.77264 
 C                    -2.80931   0.72446   2.77264 
 C                    -1.51702   1.17168   3.25381 
 C                    -0.92045   2.29951   2.69803 
 C                     0.50008   2.30149   2.41418 
 C                     0.70644   3.01748   1.18243 
 C                     1.66799   2.56103   0.27863 
 C                     2.02959  -1.42091  -1.72405 
 C                     2.02959   1.42091  -1.72405 
 C                     0.50008  -2.30149   2.41417 
 C                     3.00923  -0.79889  -0.72684 
 C                     3.00923   0.79889  -0.72684 
 C                     5.46603   0.67165  -0.0756 
 C                     5.46603  -0.67165  -0.0756 
 C                     6.34881   1.57065   0.75055 
 H                     6.94836   2.22409   0.10331 
 H                     5.73928   2.23173   1.3806 
 H                     7.03273   1.01724   1.40006 
 C                     6.34881  -1.57065   0.75055 
 H                     6.94836  -2.22409   0.10331 
 H                     7.03273  -1.01723   1.40006 
 H                     5.73928  -2.23174   1.3806 
 C                     4.45971  -1.33307  -0.98929 
 H                     4.70515  -1.14404  -2.04276 
 H                     4.45573  -2.4191   -0.85571 
 C                     4.45971   1.33308  -0.98929 
 H                     4.45573   2.4191   -0.85571 
 H                     4.70515   1.14404  -2.04276 
 
 ITRead=  0  0  0  0  0  0  0  0  0  0  0  0  0  0  0  0  0  0  0  0
 ITRead=  0  0  0  0  0  0  0  0  0  0  0  0  0  0  0  0  0  0  0  0
 ITRead=  0  0  0  0  0  0  0  0  0  0  0  0  0  0  0  0  0  0  0  0
 ITRead=  0  0  0  0  0  0  0  0  0  0  0  0  0  0  0  0
 MicOpt= -1 -1 -1 -1 -1 -1 -1 -1 -1 -1 -1 -1 -1 -1 -1 -1 -1 -1 -1 -1
 MicOpt= -1 -1 -1 -1 -1 -1 -1 -1 -1 -1 -1 -1 -1 -1 -1 -1 -1 -1 -1 -1
 MicOpt= -1 -1 -1 -1 -1 -1 -1 -1 -1 -1 -1 -1 -1 -1 -1 -1 -1 -1 -1 -1
 MicOpt= -1 -1 -1 -1 -1 -1 -1 -1 -1 -1 -1 -1 -1 -1 -1 -1
 NAtoms=     76 NQM=       76 NQMF=       0 NMMI=      0 NMMIF=      0
                NMic=       0 NMicF=      0.
                    Isotopes and Nuclear Properties:
 (Nuclear quadrupole moments (NQMom) in fm**2, nuclear magnetic moments (NMagM)
  in nuclear magnetons)

  Atom         1           2           3           4           5           6           7           8           9          10
 IAtWgt=          12          12          12          12          12          12          12          12          12          12
 AtmWgt=  12.0000000  12.0000000  12.0000000  12.0000000  12.0000000  12.0000000  12.0000000  12.0000000  12.0000000  12.0000000
 NucSpn=           0           0           0           0           0           0           0           0           0           0
 AtZEff=  -0.0000000  -0.0000000  -0.0000000  -0.0000000  -0.0000000  -0.0000000  -0.0000000  -0.0000000  -0.0000000  -0.0000000
 NQMom=    0.0000000   0.0000000   0.0000000   0.0000000   0.0000000   0.0000000   0.0000000   0.0000000   0.0000000   0.0000000
 NMagM=    0.0000000   0.0000000   0.0000000   0.0000000   0.0000000   0.0000000   0.0000000   0.0000000   0.0000000   0.0000000
 AtZNuc=   6.0000000   6.0000000   6.0000000   6.0000000   6.0000000   6.0000000   6.0000000   6.0000000   6.0000000   6.0000000

  Atom        11          12          13          14          15          16          17          18          19          20
 IAtWgt=          12          12          12          12          12          12          12          12          12          12
 AtmWgt=  12.0000000  12.0000000  12.0000000  12.0000000  12.0000000  12.0000000  12.0000000  12.0000000  12.0000000  12.0000000
 NucSpn=           0           0           0           0           0           0           0           0           0           0
 AtZEff=  -0.0000000  -0.0000000  -0.0000000  -0.0000000  -0.0000000  -0.0000000  -0.0000000  -0.0000000  -0.0000000  -0.0000000
 NQMom=    0.0000000   0.0000000   0.0000000   0.0000000   0.0000000   0.0000000   0.0000000   0.0000000   0.0000000   0.0000000
 NMagM=    0.0000000   0.0000000   0.0000000   0.0000000   0.0000000   0.0000000   0.0000000   0.0000000   0.0000000   0.0000000
 AtZNuc=   6.0000000   6.0000000   6.0000000   6.0000000   6.0000000   6.0000000   6.0000000   6.0000000   6.0000000   6.0000000

  Atom        21          22          23          24          25          26          27          28          29          30
 IAtWgt=          12          12          12          12          12          12          12          12          12          12
 AtmWgt=  12.0000000  12.0000000  12.0000000  12.0000000  12.0000000  12.0000000  12.0000000  12.0000000  12.0000000  12.0000000
 NucSpn=           0           0           0           0           0           0           0           0           0           0
 AtZEff=  -0.0000000  -0.0000000  -0.0000000  -0.0000000  -0.0000000  -0.0000000  -0.0000000  -0.0000000  -0.0000000  -0.0000000
 NQMom=    0.0000000   0.0000000   0.0000000   0.0000000   0.0000000   0.0000000   0.0000000   0.0000000   0.0000000   0.0000000
 NMagM=    0.0000000   0.0000000   0.0000000   0.0000000   0.0000000   0.0000000   0.0000000   0.0000000   0.0000000   0.0000000
 AtZNuc=   6.0000000   6.0000000   6.0000000   6.0000000   6.0000000   6.0000000   6.0000000   6.0000000   6.0000000   6.0000000

  Atom        31          32          33          34          35          36          37          38          39          40
 IAtWgt=          12          12          12          12          12          12          12          12          12          12
 AtmWgt=  12.0000000  12.0000000  12.0000000  12.0000000  12.0000000  12.0000000  12.0000000  12.0000000  12.0000000  12.0000000
 NucSpn=           0           0           0           0           0           0           0           0           0           0
 AtZEff=  -0.0000000  -0.0000000  -0.0000000  -0.0000000  -0.0000000  -0.0000000  -0.0000000  -0.0000000  -0.0000000  -0.0000000
 NQMom=    0.0000000   0.0000000   0.0000000   0.0000000   0.0000000   0.0000000   0.0000000   0.0000000   0.0000000   0.0000000
 NMagM=    0.0000000   0.0000000   0.0000000   0.0000000   0.0000000   0.0000000   0.0000000   0.0000000   0.0000000   0.0000000
 AtZNuc=   6.0000000   6.0000000   6.0000000   6.0000000   6.0000000   6.0000000   6.0000000   6.0000000   6.0000000   6.0000000

  Atom        41          42          43          44          45          46          47          48          49          50
 IAtWgt=          12          12          12          12          12          12          12          12          12          12
 AtmWgt=  12.0000000  12.0000000  12.0000000  12.0000000  12.0000000  12.0000000  12.0000000  12.0000000  12.0000000  12.0000000
 NucSpn=           0           0           0           0           0           0           0           0           0           0
 AtZEff=  -0.0000000  -0.0000000  -0.0000000  -0.0000000  -0.0000000  -0.0000000  -0.0000000  -0.0000000  -0.0000000  -0.0000000
 NQMom=    0.0000000   0.0000000   0.0000000   0.0000000   0.0000000   0.0000000   0.0000000   0.0000000   0.0000000   0.0000000
 NMagM=    0.0000000   0.0000000   0.0000000   0.0000000   0.0000000   0.0000000   0.0000000   0.0000000   0.0000000   0.0000000
 AtZNuc=   6.0000000   6.0000000   6.0000000   6.0000000   6.0000000   6.0000000   6.0000000   6.0000000   6.0000000   6.0000000

  Atom        51          52          53          54          55          56          57          58          59          60
 IAtWgt=          12          12          12          12          12          12          12          12          12          12
 AtmWgt=  12.0000000  12.0000000  12.0000000  12.0000000  12.0000000  12.0000000  12.0000000  12.0000000  12.0000000  12.0000000
 NucSpn=           0           0           0           0           0           0           0           0           0           0
 AtZEff=  -0.0000000  -0.0000000  -0.0000000  -0.0000000  -0.0000000  -0.0000000  -0.0000000  -0.0000000  -0.0000000  -0.0000000
 NQMom=    0.0000000   0.0000000   0.0000000   0.0000000   0.0000000   0.0000000   0.0000000   0.0000000   0.0000000   0.0000000
 NMagM=    0.0000000   0.0000000   0.0000000   0.0000000   0.0000000   0.0000000   0.0000000   0.0000000   0.0000000   0.0000000
 AtZNuc=   6.0000000   6.0000000   6.0000000   6.0000000   6.0000000   6.0000000   6.0000000   6.0000000   6.0000000   6.0000000

  Atom        61          62          63          64          65          66          67          68          69          70
 IAtWgt=          12          12          12           1           1           1          12           1           1           1
 AtmWgt=  12.0000000  12.0000000  12.0000000   1.0078250   1.0078250   1.0078250  12.0000000   1.0078250   1.0078250   1.0078250
 NucSpn=           0           0           0           1           1           1           0           1           1           1
 AtZEff=  -0.0000000  -0.0000000  -0.0000000  -0.0000000  -0.0000000  -0.0000000  -0.0000000  -0.0000000  -0.0000000  -0.0000000
 NQMom=    0.0000000   0.0000000   0.0000000   0.0000000   0.0000000   0.0000000   0.0000000   0.0000000   0.0000000   0.0000000
 NMagM=    0.0000000   0.0000000   0.0000000   2.7928460   2.7928460   2.7928460   0.0000000   2.7928460   2.7928460   2.7928460
 AtZNuc=   6.0000000   6.0000000   6.0000000   1.0000000   1.0000000   1.0000000   6.0000000   1.0000000   1.0000000   1.0000000

  Atom        71          72          73          74          75          76
 IAtWgt=          12           1           1          12           1           1
 AtmWgt=  12.0000000   1.0078250   1.0078250  12.0000000   1.0078250   1.0078250
 NucSpn=           0           1           1           0           1           1
 AtZEff=  -0.0000000  -0.0000000  -0.0000000  -0.0000000  -0.0000000  -0.0000000
 NQMom=    0.0000000   0.0000000   0.0000000   0.0000000   0.0000000   0.0000000
 NMagM=    0.0000000   2.7928460   2.7928460   0.0000000   2.7928460   2.7928460
 AtZNuc=   6.0000000   1.0000000   1.0000000   6.0000000   1.0000000   1.0000000
 Leave Link  101 at Wed Jun 11 09:13:37 2025, MaxMem=   104857600 cpu:               0.1 elap:               0.2
 (Enter /mlatom/software/Gaussian/g16-avx2/l103.exe)

 GradGradGradGradGradGradGradGradGradGradGradGradGradGradGradGradGradGrad
 Berny optimization.
 Initialization pass.
 Trust Radius=3.00D-01 FncErr=1.00D-07 GrdErr=1.00D-07 EigMax=2.50D+02 EigMin=1.00D-04
 Number of steps in this run=      2 maximum allowed number of steps=      2.
 GradGradGradGradGradGradGradGradGradGradGradGradGradGradGradGradGradGrad

 Leave Link  103 at Wed Jun 11 09:13:37 2025, MaxMem=   104857600 cpu:               0.0 elap:               0.1
 (Enter /mlatom/software/Gaussian/g16-avx2/l202.exe)
 Stoichiometry    C66H10
 Framework group  C1[X(C66H10)]
 Deg. of freedom   222
 Full point group                 C1      NOp   1
 Largest Abelian subgroup         C1      NOp   1
 Largest concise Abelian subgroup C1      NOp   1
                         Standard orientation:                         
 ---------------------------------------------------------------------
 Center     Atomic      Atomic             Coordinates (Angstroms)
 Number     Number       Type             X           Y           Z
 ---------------------------------------------------------------------
      1          6           0        1.929844   -2.300016   -2.391155
      2          6           0        0.508482   -2.301906   -2.671075
      3          6           0       -0.104884   -1.172221   -3.212797
      4          6           0        0.692117   -0.000001   -3.510646
      5          6           0        2.061393   -0.000001   -3.251966
      6          6           0        2.692796   -1.171748   -2.676881
      7          6           0        2.143395   -3.025851   -1.153702
      8          6           0        0.851249   -3.472050   -0.669731
      9          6           0       -0.153421   -3.017564   -1.611242
     10          6           0       -1.388042   -2.562030   -1.142397
     11          6           0       -1.395751   -0.737610   -2.731604
     12          6           0       -0.104884    1.172219   -3.212797
     13          6           0        0.508482    2.301904   -2.671075
     14          6           0        1.929843    2.300015   -2.391156
     15          6           0        2.692796    1.171747   -2.676881
     16          6           0        3.703836    0.724488   -1.739185
     17          6           0        3.703836   -0.724489   -1.739184
     18          6           0        3.909494   -1.420969   -0.549974
     19          6           0        3.113278   -2.594907   -0.251004
     20          6           0        0.581179   -3.472867    0.695861
     21          6           0        1.590597   -3.026056    1.636244
     22          6           0        2.831282   -2.594893    1.171725
     23          6           0        3.453171   -1.420934    1.751853
     24          6           0        4.120594   -0.696338    0.688027
     25          6           0        4.120594    0.696338    0.688027
     26          6           0        3.909494    1.420969   -0.549975
     27          6           0        3.113277    2.594907   -0.251005
     28          6           0        2.143395    3.025851   -1.153704
     29          6           0       -1.395751    0.737609   -2.731605
     30          6           0       -0.706444    3.017485    1.182429
     31          6           0       -1.667993    2.561031    0.278629
     32          6           0       -2.479534    1.417661    0.572715
     33          6           0       -2.287105    0.738350    1.747980
     34          6           0       -1.274282    1.171778    2.682377
     35          6           0        0.920451    2.299508    2.698028
     36          6           0        1.590597    3.026057    1.636242
     37          6           0        0.581179    3.472868    0.695860
     38          6           0        0.851249    3.472050   -0.669733
     39          6           0       -0.153422    3.017563   -1.611244
     40          6           0       -1.388042    2.562029   -1.142398
     41          6           0       -2.479534   -1.417661    0.572716
     42          6           0       -2.287105   -0.738349    1.747980
     43          6           0       -1.274282   -1.171777    2.682377
     44          6           0       -0.650583    0.000001    3.261780
     45          6           0        0.714009    0.000001    3.544657
     46          6           0        1.517022    1.171682    3.253805
     47          6           0        2.831282    2.594894    1.171724
     48          6           0        3.453171    1.420935    1.751852
     49          6           0        2.809313    0.724459    2.772641
     50          6           0        2.809313   -0.724458    2.772642
     51          6           0        1.517022   -1.171680    3.253806
     52          6           0        0.920451   -2.299507    2.698029
     53          6           0       -0.500075   -2.301492    2.414175
     54          6           0       -0.706444   -3.017485    1.182431
     55          6           0       -1.667992   -2.561030    0.278630
     56          6           0       -2.029590    1.420906   -1.724052
     57          6           0       -2.029590   -1.420907   -1.724051
     58          6           0       -0.500075    2.301492    2.414174
     59          6           0       -3.009229    0.798891   -0.726840
     60          6           0       -3.009229   -0.798891   -0.726839
     61          6           0       -5.466033   -0.671647   -0.075599
     62          6           0       -5.466033    0.671646   -0.075599
     63          6           0       -6.348814   -1.570650    0.750547
     64          1           0       -6.948356   -2.224092    0.103312
     65          1           0       -5.739278   -2.231735    1.380599
     66          1           0       -7.032733   -1.017235    1.400058
     67          6           0       -6.348814    1.570649    0.750547
     68          1           0       -6.948357    2.224090    0.103312
     69          1           0       -7.032732    1.017235    1.400058
     70          1           0       -5.739278    2.231736    1.380598
     71          6           0       -4.459712    1.333074   -0.989291
     72          1           0       -4.705147    1.144036   -2.042763
     73          1           0       -4.455726    2.419102   -0.855709
     74          6           0       -4.459712   -1.333075   -0.989290
     75          1           0       -4.455726   -2.419103   -0.855709
     76          1           0       -4.705148   -1.144037   -2.042763
 ---------------------------------------------------------------------
 Rotational constants (GHZ):           0.0814083           0.0562802           0.0556525
 Leave Link  202 at Wed Jun 11 09:13:38 2025, MaxMem=   104857600 cpu:               0.0 elap:               0.1
 (Enter /mlatom/software/Gaussian/g16-avx2/l301.exe)
 Standard basis: STO-3G (5D, 7F)
 Ernie: Thresh=  0.10000D-02 Tol=  0.10000D-05 Strict=F.
 There are   340 symmetry adapted cartesian basis functions of A   symmetry.
 There are   340 symmetry adapted basis functions of A   symmetry.
   340 basis functions,  1020 primitive gaussians,   340 cartesian basis functions
   203 alpha electrons      203 beta electrons
       nuclear repulsion energy      9945.9134190288 Hartrees.
 IExCor=    0 DFT=F Ex=HF Corr=None ExCW=0 ScaHFX=  1.000000
 ScaDFX=  1.000000  1.000000  1.000000  1.000000 ScalE2=  1.000000  1.000000
 IRadAn=      5 IRanWt=     -1 IRanGd=            0 ICorTp=0 IEmpDi=  4
 NAtoms=   76 NActive=   76 NUniq=   76 SFac= 1.00D+00 NAtFMM=   60 NAOKFM=T Big=T
 Integral buffers will be    131072 words long.
 Raffenetti 1 integral format.
 Two-electron integral symmetry is turned on.
 Leave Link  301 at Wed Jun 11 09:13:38 2025, MaxMem=   104857600 cpu:               0.1 elap:               0.2
 (Enter /mlatom/software/Gaussian/g16-avx2/l402.exe)
 External calculation of energy, first and second derivatives.
 Running external command "/mlatom/software/miniconda3/bin/python /mlatom/software/mlatom_xacs/mlatom/interfaces/gaussian_interface.py model_predict_kwargs R"
         input file       "/mlatom/projects/yaohuang/ADL/C60/opt/al2/p/Gau-74300.EIn"
         output file      "/mlatom/projects/yaohuang/ADL/C60/opt/al2/p/Gau-74300.EOu"
         message file     "/mlatom/projects/yaohuang/ADL/C60/opt/al2/p/Gau-74300.EMs"
         fchk file        "/mlatom/projects/yaohuang/ADL/C60/opt/al2/p/Gau-74300.EFC"
         mat. el file     "/mlatom/projects/yaohuang/ADL/C60/opt/al2/p/Gau-74300.EUF"
model loaded from /mlatom/projects/yaohuang/ADL/C60/opt/al2/AL_main_model_C60_butadiene.npz
 Recovered energy= -2521.21507527     dipole=      0.000000000000      0.000000000000      0.000000000000
 Energy=    -2521.21508     NIter=   0.
 Dipole moment=       0.000000       0.000000       0.000000
 Leave Link  402 at Wed Jun 11 09:13:50 2025, MaxMem=   104857600 cpu:               0.1 elap:              12.4
 (Enter /mlatom/software/Gaussian/g16-avx2/l601.exe)
 Leave Link  601 at Wed Jun 11 09:13:50 2025, MaxMem=   104857600 cpu:               0.0 elap:               0.2
 (Enter /mlatom/software/Gaussian/g16-avx2/l716.exe)
 Dipole        = 0.00000000D+00 0.00000000D+00 0.00000000D+00
 Full mass-weighted force constant matrix:
 Low frequencies ---   -0.3832   -0.2955   -0.0436    0.2064    0.2234    0.2996
 Low frequencies ---   48.3615   73.3035   95.5412
 Diagonal vibrational polarizability:
        0.0000000       0.0000000       0.0000000
 Harmonic frequencies (cm**-1), IR intensities (KM/Mole), Raman scattering
 activities (A**4/AMU), depolarization ratios for plane and unpolarized
 incident light, reduced masses (AMU), force constants (mDyne/A),
 and normal coordinates:
                      1                      2                      3
                      A                      A                      A
 Frequencies --     48.3615                73.3035                95.5412
 Red. masses --      3.6161                 3.3692                 3.4471
 Frc consts  --      0.0050                 0.0107                 0.0185
 IR Inten    --      0.0000                 0.0000                 0.0000
  Atom  AN      X      Y      Z        X      Y      Z        X      Y      Z
     1   6     0.02   0.00   0.00    -0.01  -0.01   0.01     0.02   0.00   0.00
     2   6     0.02   0.00  -0.01    -0.01   0.00   0.01     0.02  -0.01   0.00
     3   6     0.02   0.00  -0.02    -0.00   0.00   0.00     0.01  -0.02   0.00
     4   6     0.03   0.00  -0.01     0.00  -0.00  -0.00     0.00  -0.01  -0.00
     5   6     0.02   0.00   0.00     0.00  -0.01   0.00     0.00   0.00   0.00
     6   6     0.02   0.00   0.01    -0.01  -0.01   0.00     0.01   0.01   0.00
     7   6     0.00   0.00   0.00    -0.02  -0.01   0.01     0.03   0.01   0.00
     8   6    -0.00  -0.00  -0.01    -0.02   0.00   0.01     0.03  -0.01   0.00
     9   6     0.01  -0.00  -0.02    -0.02   0.01   0.01     0.02  -0.02   0.00
    10   6     0.00  -0.00  -0.04    -0.01   0.02   0.01     0.01  -0.03  -0.00
    11   6     0.02   0.00  -0.03     0.00   0.01   0.00     0.00  -0.03   0.00
    12   6     0.02  -0.00  -0.02     0.00   0.00  -0.00    -0.01  -0.02  -0.00
    13   6     0.02  -0.00  -0.01     0.01   0.00  -0.01    -0.02  -0.01  -0.00
    14   6     0.02  -0.00   0.00     0.01  -0.01  -0.01    -0.02   0.00  -0.00
    15   6     0.02  -0.00   0.01     0.01  -0.01  -0.00    -0.01   0.01  -0.00
    16   6     0.01  -0.00   0.02     0.00  -0.02  -0.00    -0.01   0.02  -0.00
    17   6     0.01   0.00   0.02    -0.00  -0.02   0.00     0.01   0.02   0.00
    18   6    -0.00   0.00   0.02    -0.01  -0.01   0.01     0.01   0.03   0.00
    19   6    -0.01  -0.00   0.01    -0.02  -0.01   0.01     0.03   0.02   0.00
    20   6    -0.02  -0.00  -0.01    -0.02   0.01   0.01     0.03  -0.01  -0.00
    21   6    -0.03  -0.00  -0.00    -0.02   0.01   0.01     0.03   0.00  -0.00
    22   6    -0.02  -0.00   0.01    -0.02  -0.00   0.01     0.03   0.01  -0.00
    23   6    -0.03  -0.00   0.02    -0.01  -0.00   0.01     0.01   0.02  -0.00
    24   6    -0.02   0.00   0.02    -0.00  -0.01   0.00     0.01   0.03  -0.00
    25   6    -0.02  -0.00   0.02     0.00  -0.01  -0.00    -0.01   0.03   0.00
    26   6    -0.00  -0.00   0.02     0.01  -0.01  -0.01    -0.01   0.03  -0.00
    27   6    -0.01   0.00   0.01     0.02  -0.01  -0.01    -0.03   0.02  -0.00
    28   6     0.00  -0.00   0.00     0.02  -0.01  -0.01    -0.03   0.01  -0.00
    29   6     0.02  -0.00  -0.03    -0.00   0.01  -0.00    -0.00  -0.03  -0.00
    30   6    -0.02   0.00  -0.03     0.02   0.02  -0.01    -0.03  -0.02   0.00
    31   6    -0.01   0.00  -0.04     0.02   0.02  -0.01    -0.02  -0.03   0.00
    32   6    -0.00  -0.00  -0.04     0.02   0.02  -0.00    -0.00  -0.04  -0.00
    33   6    -0.02  -0.00  -0.04     0.01   0.03  -0.00    -0.00  -0.04  -0.00
    34   6    -0.04   0.00  -0.03     0.01   0.03  -0.00    -0.01  -0.03   0.00
    35   6    -0.04   0.00  -0.01     0.02   0.02  -0.01    -0.02  -0.01   0.00
    36   6    -0.03   0.00  -0.00     0.02   0.01  -0.01    -0.03   0.00   0.00
    37   6    -0.02   0.00  -0.01     0.02   0.01  -0.01    -0.03  -0.01   0.00
    38   6    -0.00   0.00  -0.01     0.02   0.00  -0.01    -0.03  -0.01  -0.00
    39   6     0.01   0.00  -0.02     0.02   0.01  -0.01    -0.02  -0.02  -0.00
    40   6     0.00   0.00  -0.04     0.01   0.02  -0.01    -0.01  -0.03   0.00
    41   6    -0.00   0.00  -0.04    -0.02   0.02   0.00     0.00  -0.04   0.00
    42   6    -0.02   0.00  -0.04    -0.01   0.03   0.00     0.00  -0.04   0.00
    43   6    -0.04  -0.00  -0.03    -0.01   0.03   0.00     0.01  -0.03  -0.00
    44   6    -0.04  -0.00  -0.03    -0.00   0.03  -0.00    -0.00  -0.02  -0.00
    45   6    -0.05  -0.00  -0.01    -0.00   0.02  -0.00    -0.00  -0.01  -0.00
    46   6    -0.04   0.00  -0.00     0.01   0.02  -0.00    -0.01  -0.00   0.00
    47   6    -0.02   0.00   0.01     0.02  -0.00  -0.01    -0.03   0.01   0.00
    48   6    -0.03   0.00   0.02     0.01  -0.00  -0.01    -0.01   0.02   0.00
    49   6    -0.04   0.00   0.01     0.01   0.00  -0.00    -0.01   0.01   0.00
    50   6    -0.04  -0.00   0.01    -0.01   0.00   0.00     0.01   0.01  -0.00
    51   6    -0.04  -0.00  -0.00    -0.01   0.02   0.00     0.01  -0.00  -0.00
    52   6    -0.04  -0.00  -0.01    -0.02   0.02   0.01     0.02  -0.01  -0.00
    53   6    -0.03  -0.00  -0.02    -0.02   0.02   0.01     0.02  -0.02  -0.00
    54   6    -0.02  -0.00  -0.03    -0.02   0.02   0.01     0.03  -0.02  -0.00
    55   6    -0.01  -0.00  -0.04    -0.02   0.02   0.01     0.02  -0.03  -0.00
    56   6     0.00   0.00  -0.04    -0.01   0.02  -0.01     0.01  -0.04   0.00
    57   6     0.00  -0.00  -0.04     0.01   0.02   0.01    -0.01  -0.04  -0.00
    58   6    -0.03   0.00  -0.02     0.02   0.02  -0.01    -0.02  -0.02   0.00
    59   6     0.00   0.00  -0.05     0.00   0.02   0.01     0.01  -0.04  -0.00
    60   6     0.00  -0.00  -0.05    -0.00   0.02  -0.01    -0.01  -0.04   0.00
    61   6     0.05  -0.00   0.08    -0.01  -0.07  -0.07    -0.04   0.08  -0.01
    62   6     0.05   0.00   0.08     0.01  -0.07   0.07     0.04   0.08   0.01
    63   6     0.18  -0.00   0.21    -0.07  -0.15  -0.22    -0.20   0.15  -0.10
    64   1     0.09  -0.02   0.31    -0.04  -0.06  -0.34    -0.22   0.24  -0.18
    65   1     0.29   0.01   0.12    -0.13  -0.23  -0.26    -0.35   0.05  -0.07
    66   1     0.28  -0.01   0.31    -0.10  -0.21  -0.20    -0.19   0.21  -0.15
    67   6     0.18   0.00   0.21     0.07  -0.15   0.22     0.20   0.15   0.10
    68   1     0.09   0.02   0.31     0.04  -0.06   0.34     0.22   0.24   0.18
    69   1     0.28   0.01   0.31     0.10  -0.21   0.20     0.19   0.21   0.15
    70   1     0.29  -0.01   0.12     0.13  -0.23   0.26     0.35   0.05   0.07
    71   6    -0.01  -0.01  -0.00    -0.02   0.01   0.08     0.04   0.01  -0.03
    72   1    -0.06  -0.04   0.01    -0.05   0.07   0.08     0.03  -0.02  -0.02
    73   1    -0.01  -0.01  -0.03    -0.04   0.00   0.15     0.09   0.01  -0.07
    74   6    -0.01   0.01  -0.00     0.02   0.01  -0.08    -0.04   0.01   0.03
    75   1    -0.01   0.01  -0.03     0.04   0.00  -0.15    -0.09   0.01   0.07
    76   1    -0.06   0.04   0.01     0.05   0.07  -0.08    -0.03  -0.02   0.02
                      4                      5                      6
                      A                      A                      A
 Frequencies --    148.2609               169.4418               181.8095
 Red. masses --      1.0220                 4.3769                 1.8767
 Frc consts  --      0.0132                 0.0740                 0.0365
 IR Inten    --      0.0000                 0.0000                 0.0000
  Atom  AN      X      Y      Z        X      Y      Z        X      Y      Z
     1   6     0.00   0.00  -0.00     0.04   0.01  -0.00     0.01  -0.01   0.01
     2   6     0.00  -0.00  -0.00     0.04   0.01  -0.02     0.01  -0.01   0.01
     3   6     0.00  -0.00  -0.00     0.04   0.01  -0.01     0.01  -0.02   0.00
     4   6     0.00  -0.00  -0.00     0.05  -0.00  -0.00    -0.00  -0.02  -0.00
     5   6     0.00  -0.00  -0.00     0.05  -0.00   0.01    -0.00  -0.01  -0.00
     6   6     0.00   0.00  -0.00     0.05   0.00   0.01     0.01  -0.00   0.00
     7   6    -0.00   0.00  -0.00     0.03   0.01  -0.00     0.02  -0.00   0.01
     8   6    -0.00   0.00  -0.00     0.02   0.01  -0.02     0.02  -0.01   0.01
     9   6     0.00   0.00  -0.00     0.02   0.01  -0.03     0.01  -0.01   0.01
    10   6     0.00   0.00  -0.00     0.01   0.00  -0.05     0.00  -0.02   0.00
    11   6     0.00  -0.00  -0.00     0.02   0.00  -0.03     0.00  -0.02   0.00
    12   6     0.00   0.00  -0.00     0.04  -0.01  -0.01    -0.01  -0.02  -0.00
    13   6     0.00   0.00  -0.00     0.04  -0.01  -0.02    -0.01  -0.01  -0.01
    14   6     0.00  -0.00  -0.00     0.04  -0.01  -0.00    -0.01  -0.01  -0.01
    15   6     0.00  -0.00  -0.00     0.05  -0.00   0.01    -0.01  -0.00  -0.00
    16   6     0.00  -0.00   0.00     0.05  -0.00   0.02    -0.00   0.01  -0.00
    17   6     0.00   0.00   0.00     0.05   0.00   0.02     0.00   0.01   0.00
    18   6    -0.00   0.00   0.00     0.03   0.00   0.03     0.01   0.01   0.00
    19   6    -0.00   0.00   0.00     0.02   0.00   0.01     0.02   0.01   0.01
    20   6    -0.00   0.00  -0.00     0.01   0.01  -0.03     0.02  -0.01   0.01
    21   6    -0.00  -0.00  -0.00    -0.00   0.00  -0.01     0.02   0.00   0.01
    22   6    -0.00   0.00   0.00     0.01   0.00   0.01     0.02   0.01   0.01
    23   6    -0.00   0.00   0.00    -0.00  -0.00   0.02     0.01   0.01   0.00
    24   6    -0.00   0.00   0.00     0.02  -0.00   0.03     0.00   0.02   0.00
    25   6    -0.00  -0.00   0.00     0.02   0.00   0.03    -0.00   0.02  -0.00
    26   6    -0.00  -0.00   0.00     0.03  -0.00   0.03    -0.01   0.01  -0.00
    27   6    -0.00  -0.00   0.00     0.02  -0.00   0.01    -0.02   0.01  -0.01
    28   6    -0.00  -0.00  -0.00     0.03  -0.01  -0.00    -0.02  -0.00  -0.01
    29   6     0.00   0.00  -0.00     0.02  -0.00  -0.03    -0.00  -0.02  -0.00
    30   6    -0.00  -0.00  -0.00     0.01  -0.01  -0.04    -0.01  -0.01  -0.00
    31   6     0.00  -0.00  -0.00     0.02  -0.01  -0.05     0.00  -0.02  -0.00
    32   6     0.00  -0.00  -0.00     0.02  -0.01  -0.04     0.02  -0.03   0.00
    33   6     0.00  -0.00  -0.00    -0.00  -0.00  -0.04     0.00  -0.03   0.00
    34   6    -0.00   0.00  -0.00    -0.01   0.00  -0.04    -0.00  -0.02   0.00
    35   6    -0.00   0.00  -0.00    -0.01   0.00  -0.02    -0.01  -0.00  -0.00
    36   6    -0.00   0.00  -0.00    -0.00  -0.00  -0.01    -0.02   0.00  -0.01
    37   6    -0.00  -0.00  -0.00     0.01  -0.01  -0.03    -0.02  -0.01  -0.01
    38   6    -0.00  -0.00  -0.00     0.02  -0.01  -0.02    -0.02  -0.01  -0.01
    39   6     0.00  -0.00  -0.00     0.02  -0.01  -0.03    -0.01  -0.01  -0.01
    40   6     0.00  -0.00  -0.00     0.01  -0.00  -0.05    -0.00  -0.02  -0.00
    41   6     0.00   0.00  -0.00     0.02   0.01  -0.04    -0.02  -0.03  -0.00
    42   6     0.00   0.00  -0.00    -0.00   0.00  -0.04    -0.00  -0.03  -0.00
    43   6    -0.00  -0.00  -0.00    -0.01  -0.00  -0.04     0.00  -0.02  -0.00
    44   6    -0.00   0.00   0.00    -0.02  -0.00  -0.03     0.00  -0.02   0.00
    45   6    -0.00   0.00   0.00    -0.02  -0.00  -0.02     0.00  -0.01   0.00
    46   6    -0.00   0.00   0.00    -0.02   0.00  -0.01    -0.01  -0.00  -0.00
    47   6    -0.00  -0.00   0.00     0.01  -0.00   0.01    -0.02   0.01  -0.01
    48   6    -0.00  -0.00   0.00    -0.00   0.00   0.02    -0.01   0.01  -0.00
    49   6    -0.00  -0.00   0.00    -0.02   0.00   0.01    -0.00   0.01  -0.00
    50   6    -0.00   0.00   0.00    -0.02  -0.00   0.01     0.00   0.01   0.00
    51   6    -0.00  -0.00   0.00    -0.02  -0.00  -0.01     0.01  -0.00   0.00
    52   6    -0.00  -0.00  -0.00    -0.01  -0.00  -0.02     0.01  -0.00   0.00
    53   6    -0.00   0.00  -0.00    -0.01   0.00  -0.04     0.01  -0.01   0.00
    54   6    -0.00   0.00  -0.00     0.01   0.01  -0.04     0.01  -0.01   0.00
    55   6     0.00   0.00  -0.00     0.02   0.01  -0.05    -0.00  -0.02   0.00
    56   6     0.00  -0.00  -0.00    -0.02   0.00  -0.05     0.00  -0.02  -0.00
    57   6     0.00   0.00  -0.00    -0.02  -0.00  -0.05    -0.00  -0.02   0.00
    58   6    -0.00  -0.00  -0.00    -0.01  -0.00  -0.04    -0.01  -0.01  -0.00
    59   6    -0.00  -0.00  -0.00    -0.03   0.00  -0.02     0.01   0.00   0.01
    60   6    -0.00   0.00  -0.00    -0.03  -0.00  -0.02    -0.01   0.00  -0.01
    61   6    -0.01  -0.00  -0.01    -0.03   0.00   0.20     0.01   0.07  -0.03
    62   6    -0.01   0.00  -0.01    -0.03  -0.00   0.20    -0.01   0.07   0.03
    63   6     0.01   0.00   0.02    -0.19   0.02   0.05     0.08   0.01  -0.01
    64   1     0.31  -0.29   0.04    -0.14   0.09  -0.07    -0.15   0.20   0.00
    65   1     0.02   0.29   0.31    -0.35  -0.06   0.12     0.15  -0.17  -0.28
    66   1    -0.25   0.01  -0.26    -0.25   0.03  -0.03     0.28  -0.04   0.25
    67   6     0.01  -0.00   0.02    -0.19  -0.02   0.05    -0.08   0.01   0.01
    68   1     0.31   0.29   0.04    -0.14  -0.09  -0.07     0.15   0.20  -0.00
    69   1    -0.25  -0.01  -0.26    -0.25  -0.03  -0.03    -0.28  -0.04  -0.25
    70   1     0.02  -0.29   0.31    -0.35   0.06   0.12    -0.15  -0.17   0.28
    71   6     0.00   0.01   0.00    -0.06   0.02   0.16     0.02   0.10   0.09
    72   1     0.01   0.02   0.00    -0.17   0.07   0.17    -0.01   0.24   0.07
    73   1     0.01   0.00   0.02    -0.04   0.01   0.21     0.10   0.09   0.21
    74   6     0.00  -0.01   0.00    -0.06  -0.02   0.16    -0.02   0.10  -0.09
    75   1     0.01  -0.00   0.02    -0.04  -0.01   0.21    -0.10   0.09  -0.21
    76   1     0.01  -0.02   0.00    -0.17  -0.07   0.17     0.01   0.24  -0.07
                      7                      8                      9
                      A                      A                      A
 Frequencies --    210.4353               221.7171               245.7136
 Red. masses --      1.3236                 6.6622                11.9068
 Frc consts  --      0.0345                 0.1930                 0.4235
 IR Inten    --      0.0000                 0.0000                 0.0000
  Atom  AN      X      Y      Z        X      Y      Z        X      Y      Z
     1   6     0.01  -0.01   0.01    -0.02  -0.02  -0.04    -0.04   0.12   0.12
     2   6     0.01  -0.01   0.01    -0.01  -0.03  -0.05    -0.02   0.14   0.14
     3   6     0.00  -0.01   0.00     0.01  -0.01  -0.06     0.01   0.12   0.11
     4   6     0.00  -0.01   0.00    -0.00  -0.00  -0.08     0.00   0.11  -0.00
     5   6     0.00  -0.01   0.00    -0.01  -0.00  -0.06     0.00   0.10  -0.00
     6   6     0.00  -0.00   0.00    -0.03  -0.01  -0.04    -0.04   0.10   0.06
     7   6     0.01  -0.00   0.01    -0.03  -0.02  -0.03    -0.04   0.08   0.09
     8   6     0.01  -0.00   0.01    -0.02  -0.03  -0.02    -0.02   0.05   0.10
     9   6     0.01  -0.01   0.01     0.00  -0.04  -0.04    -0.01   0.10   0.11
    10   6     0.00  -0.01   0.00     0.03  -0.01  -0.01     0.00   0.07   0.11
    11   6     0.00  -0.01  -0.00     0.03  -0.00  -0.02     0.02   0.11   0.09
    12   6    -0.00  -0.01  -0.00     0.01   0.01  -0.06    -0.01   0.12  -0.11
    13   6    -0.01  -0.01  -0.01    -0.01   0.03  -0.05     0.02   0.14  -0.14
    14   6    -0.01  -0.01  -0.01    -0.02   0.02  -0.04     0.04   0.12  -0.12
    15   6    -0.00  -0.00  -0.00    -0.03   0.01  -0.04     0.04   0.10  -0.06
    16   6    -0.00   0.00  -0.00    -0.07  -0.00  -0.02     0.03   0.07  -0.03
    17   6     0.00   0.00   0.00    -0.07   0.00  -0.02    -0.03   0.07   0.03
    18   6     0.01   0.01   0.00    -0.09   0.01  -0.01    -0.04   0.04   0.03
    19   6     0.01   0.00   0.00    -0.06  -0.01  -0.01    -0.03   0.03   0.06
    20   6     0.01  -0.00   0.00    -0.02  -0.03  -0.00    -0.02  -0.05   0.10
    21   6     0.01  -0.00   0.00    -0.04  -0.03   0.01     0.00  -0.08   0.10
    22   6     0.01   0.00   0.00    -0.06  -0.01  -0.01    -0.00  -0.04   0.07
    23   6     0.01   0.01   0.00    -0.09   0.00  -0.01     0.02  -0.04   0.04
    24   6     0.00   0.01   0.00    -0.11   0.00  -0.01    -0.01  -0.00   0.02
    25   6    -0.00   0.01  -0.00    -0.11  -0.00  -0.01     0.01  -0.00  -0.02
    26   6    -0.01   0.01  -0.00    -0.09  -0.01  -0.01     0.04   0.04  -0.03
    27   6    -0.01   0.00  -0.00    -0.06   0.01  -0.01     0.03   0.03  -0.06
    28   6    -0.01  -0.00  -0.01    -0.03   0.02  -0.03     0.04   0.08  -0.09
    29   6    -0.00  -0.01   0.00     0.03   0.00  -0.02    -0.02   0.11  -0.09
    30   6    -0.01  -0.01   0.00    -0.01   0.03   0.02     0.04  -0.10  -0.11
    31   6     0.00  -0.01  -0.00     0.04   0.00  -0.00     0.04  -0.06  -0.10
    32   6     0.01  -0.01   0.00     0.12  -0.02   0.01     0.07  -0.08  -0.09
    33   6     0.00  -0.01   0.00     0.04  -0.00   0.02     0.05  -0.10  -0.08
    34   6    -0.00  -0.01   0.00    -0.01   0.02   0.06     0.05  -0.12  -0.10
    35   6    -0.01  -0.00  -0.00    -0.04   0.03   0.03     0.01  -0.12  -0.13
    36   6    -0.01  -0.00  -0.00    -0.04   0.03   0.01    -0.00  -0.08  -0.10
    37   6    -0.01  -0.00  -0.00    -0.02   0.03  -0.00     0.02  -0.05  -0.10
    38   6    -0.01  -0.00  -0.01    -0.02   0.03  -0.02     0.02   0.05  -0.10
    39   6    -0.01  -0.01  -0.01     0.00   0.04  -0.04     0.01   0.10  -0.11
    40   6    -0.00  -0.01  -0.00     0.03   0.01  -0.01    -0.00   0.07  -0.11
    41   6    -0.01  -0.01  -0.00     0.12   0.02   0.01    -0.07  -0.08   0.09
    42   6    -0.00  -0.01  -0.00     0.04   0.00   0.02    -0.05  -0.10   0.08
    43   6     0.00  -0.01  -0.00    -0.01  -0.02   0.06    -0.05  -0.12   0.10
    44   6     0.00  -0.01  -0.00    -0.04  -0.00   0.07    -0.00  -0.10   0.00
    45   6     0.00  -0.01  -0.00    -0.04  -0.00   0.06    -0.00  -0.09   0.00
    46   6    -0.01  -0.00  -0.00    -0.05   0.01   0.03    -0.01  -0.10  -0.08
    47   6    -0.01   0.00  -0.00    -0.06   0.01  -0.01     0.00  -0.04  -0.07
    48   6    -0.01   0.01  -0.00    -0.09  -0.00  -0.01    -0.02  -0.04  -0.04
    49   6    -0.00   0.00  -0.00    -0.08   0.00   0.00    -0.01  -0.07  -0.04
    50   6     0.00   0.00   0.00    -0.08  -0.00   0.00     0.01  -0.07   0.04
    51   6     0.01  -0.00   0.00    -0.05  -0.01   0.03     0.01  -0.10   0.08
    52   6     0.01  -0.00   0.00    -0.04  -0.03   0.03    -0.01  -0.12   0.13
    53   6     0.01  -0.01  -0.00    -0.03  -0.03   0.04    -0.03  -0.13   0.14
    54   6     0.01  -0.01  -0.00    -0.01  -0.03   0.02    -0.04  -0.10   0.11
    55   6    -0.00  -0.01   0.00     0.04  -0.00  -0.00    -0.04  -0.06   0.10
    56   6    -0.00  -0.01  -0.00     0.08  -0.01   0.01    -0.04   0.09  -0.11
    57   6     0.00  -0.01   0.00     0.08   0.01   0.01     0.04   0.09   0.11
    58   6    -0.01  -0.01   0.00    -0.03   0.03   0.04     0.03  -0.13  -0.14
    59   6     0.00   0.01   0.01     0.14  -0.02   0.03     0.01  -0.00  -0.07
    60   6    -0.00   0.01  -0.01     0.14   0.02   0.03    -0.01  -0.00   0.07
    61   6    -0.00   0.04  -0.03     0.20   0.00   0.12    -0.01  -0.01  -0.00
    62   6     0.00   0.04   0.03     0.20  -0.00   0.12     0.01  -0.01   0.00
    63   6     0.04   0.01  -0.02     0.04  -0.01  -0.09    -0.01   0.00   0.01
    64   1     0.33  -0.27  -0.01     0.12   0.08  -0.25    -0.01  -0.01   0.03
    65   1     0.06   0.28   0.25    -0.12  -0.10  -0.04    -0.01   0.01   0.03
    66   1    -0.22  -0.02  -0.28    -0.05  -0.02  -0.16    -0.01   0.01   0.01
    67   6    -0.04   0.01   0.02     0.04   0.01  -0.09     0.01   0.00  -0.01
    68   1    -0.33  -0.27   0.01     0.12  -0.08  -0.25     0.01  -0.01  -0.03
    69   1     0.22  -0.02   0.28    -0.05   0.02  -0.16     0.01   0.01  -0.01
    70   1    -0.06   0.28  -0.25    -0.12   0.10  -0.04     0.01   0.01  -0.03
    71   6     0.01   0.06   0.05     0.17   0.02   0.11    -0.00  -0.02  -0.01
    72   1    -0.01   0.13   0.05     0.12   0.07   0.11    -0.03  -0.01  -0.01
    73   1     0.04   0.05   0.11     0.21   0.01   0.17    -0.00  -0.02  -0.01
    74   6    -0.01   0.06  -0.05     0.17  -0.02   0.11     0.00  -0.02   0.01
    75   1    -0.04   0.05  -0.11     0.21  -0.01   0.17     0.00  -0.02   0.01
    76   1     0.01   0.13  -0.05     0.12  -0.07   0.11     0.03  -0.01   0.01
                     10                     11                     12
                      A                      A                      A
 Frequencies --    250.0652               253.0044               257.4124
 Red. masses --     11.7418                10.1897                11.8609
 Frc consts  --      0.4326                 0.3843                 0.4630
 IR Inten    --      0.0000                 0.0000                 0.0000
  Atom  AN      X      Y      Z        X      Y      Z        X      Y      Z
     1   6     0.02   0.06  -0.08     0.08  -0.05  -0.00    -0.09   0.02   0.03
     2   6     0.02   0.06  -0.09     0.07   0.03   0.04    -0.08  -0.01  -0.05
     3   6     0.00   0.01  -0.15     0.03   0.03   0.04    -0.10  -0.02  -0.11
     4   6     0.03  -0.00  -0.19    -0.00   0.01   0.00    -0.11  -0.00  -0.06
     5   6     0.06  -0.00  -0.17    -0.00  -0.04   0.00    -0.12   0.00   0.04
     6   6     0.06   0.01  -0.12     0.05  -0.05  -0.02    -0.13   0.02   0.07
     7   6    -0.01   0.14  -0.02     0.11  -0.08  -0.01    -0.06   0.05   0.04
     8   6    -0.00   0.21   0.00     0.10  -0.01   0.02    -0.04   0.01  -0.01
     9   6     0.02   0.15  -0.02     0.09   0.07   0.05    -0.05  -0.03  -0.05
    10   6     0.03   0.14   0.01     0.12   0.13   0.04    -0.04  -0.02  -0.09
    11   6    -0.00   0.01  -0.10     0.03   0.06   0.01    -0.13  -0.02  -0.16
    12   6     0.00  -0.01  -0.15    -0.03   0.03  -0.04    -0.10   0.02  -0.11
    13   6     0.02  -0.06  -0.09    -0.07   0.03  -0.04    -0.08   0.01  -0.05
    14   6     0.02  -0.06  -0.08    -0.08  -0.05   0.00    -0.09  -0.02   0.03
    15   6     0.06  -0.01  -0.12    -0.05  -0.05   0.02    -0.13  -0.02   0.07
    16   6     0.05  -0.01  -0.07    -0.04  -0.07   0.00    -0.16  -0.02   0.11
    17   6     0.05   0.01  -0.07     0.04  -0.07  -0.00    -0.16   0.02   0.11
    18   6     0.02   0.05  -0.03     0.09  -0.09  -0.00    -0.10   0.03   0.10
    19   6    -0.02   0.10  -0.01     0.13  -0.12   0.01    -0.06   0.03   0.07
    20   6    -0.01   0.21  -0.00     0.10  -0.01   0.02     0.04   0.01   0.01
    21   6    -0.02   0.14   0.02     0.10  -0.08   0.04     0.05  -0.03   0.05
    22   6    -0.02   0.10  -0.00     0.13  -0.12   0.04     0.04  -0.02   0.09
    23   6     0.00   0.05   0.03     0.08  -0.09   0.03     0.08  -0.03   0.13
    24   6     0.03   0.01   0.00     0.05  -0.09   0.01    -0.00  -0.00   0.10
    25   6     0.03  -0.01   0.00    -0.05  -0.09  -0.01    -0.00   0.00   0.10
    26   6     0.02  -0.05  -0.03    -0.09  -0.09   0.00    -0.10  -0.03   0.10
    27   6    -0.02  -0.10  -0.01    -0.13  -0.12  -0.01    -0.06  -0.03   0.07
    28   6    -0.01  -0.14  -0.02    -0.11  -0.08   0.01    -0.06  -0.05   0.04
    29   6    -0.00  -0.01  -0.10    -0.03   0.06  -0.01    -0.13   0.02  -0.16
    30   6     0.01  -0.15   0.03    -0.11   0.07   0.01     0.06  -0.05  -0.04
    31   6     0.02  -0.13   0.01    -0.13   0.13  -0.01     0.06  -0.03  -0.07
    32   6    -0.02  -0.07   0.03    -0.10   0.11   0.00     0.08  -0.03  -0.10
    33   6    -0.05  -0.01   0.09    -0.04   0.06  -0.01     0.16  -0.02  -0.10
    34   6    -0.06  -0.01   0.14    -0.05   0.03   0.02     0.12  -0.03  -0.07
    35   6    -0.01  -0.06   0.08    -0.07  -0.05  -0.03     0.08   0.00   0.05
    36   6    -0.02  -0.14   0.02    -0.10  -0.08  -0.04     0.05   0.03   0.05
    37   6    -0.01  -0.21  -0.00    -0.10  -0.01  -0.02     0.04  -0.01   0.01
    38   6    -0.00  -0.21   0.00    -0.10  -0.01  -0.02    -0.04  -0.01  -0.01
    39   6     0.02  -0.15  -0.02    -0.09   0.07  -0.05    -0.05   0.03  -0.05
    40   6     0.03  -0.14   0.01    -0.12   0.13  -0.04    -0.04   0.02  -0.09
    41   6    -0.02   0.07   0.03     0.10   0.11  -0.00     0.08   0.03  -0.10
    42   6    -0.05   0.01   0.09     0.04   0.06   0.01     0.16   0.02  -0.10
    43   6    -0.06   0.01   0.14     0.05   0.03  -0.02     0.12   0.03  -0.07
    44   6    -0.04   0.00   0.18     0.00   0.01  -0.00     0.12  -0.00  -0.03
    45   6    -0.01   0.00   0.17     0.00  -0.04  -0.00     0.10   0.00   0.07
    46   6     0.01  -0.01   0.13    -0.04  -0.05  -0.04     0.10   0.02   0.11
    47   6    -0.02  -0.10  -0.00    -0.13  -0.12  -0.04     0.04   0.02   0.09
    48   6     0.00  -0.05   0.03    -0.08  -0.09  -0.03     0.08   0.03   0.13
    49   6     0.01  -0.01   0.08    -0.04  -0.07  -0.02     0.13   0.01   0.17
    50   6     0.01   0.01   0.08     0.04  -0.07   0.02     0.13  -0.01   0.17
    51   6     0.01   0.01   0.13     0.04  -0.05   0.04     0.10  -0.02   0.11
    52   6    -0.01   0.06   0.08     0.07  -0.05   0.03     0.08  -0.00   0.05
    53   6    -0.02   0.06   0.09     0.08   0.03  -0.01     0.09   0.02  -0.03
    54   6     0.01   0.15   0.03     0.11   0.07  -0.01     0.06   0.05  -0.04
    55   6     0.02   0.13   0.01     0.13   0.13   0.01     0.06   0.03  -0.07
    56   6     0.01  -0.07  -0.03    -0.07   0.10  -0.04    -0.07   0.03  -0.13
    57   6     0.01   0.07  -0.03     0.07   0.10   0.04    -0.07  -0.03  -0.13
    58   6    -0.02  -0.06   0.09    -0.08   0.03   0.01     0.09  -0.02  -0.03
    59   6    -0.03  -0.02  -0.00    -0.06   0.11  -0.02    -0.00   0.00  -0.09
    60   6    -0.03   0.02  -0.00     0.06   0.11   0.02    -0.00  -0.00  -0.09
    61   6    -0.04  -0.00  -0.03     0.05   0.05   0.02     0.02   0.00   0.01
    62   6    -0.04   0.00  -0.03    -0.05   0.05  -0.02     0.02  -0.00   0.01
    63   6    -0.00   0.01   0.02     0.02   0.01  -0.05     0.01  -0.00  -0.01
    64   1    -0.04  -0.00   0.06     0.02   0.08  -0.11     0.02   0.01  -0.03
    65   1     0.03   0.02  -0.00    -0.00  -0.05  -0.10    -0.01  -0.01  -0.01
    66   1     0.03   0.01   0.05     0.03  -0.02  -0.02     0.00  -0.00  -0.02
    67   6    -0.00  -0.01   0.02    -0.02   0.01   0.05     0.01   0.00  -0.01
    68   1    -0.04   0.00   0.06    -0.02   0.08   0.11     0.02  -0.01  -0.03
    69   1     0.03  -0.01   0.05    -0.03  -0.02   0.02     0.00   0.00  -0.02
    70   1     0.03  -0.02  -0.00     0.00  -0.05   0.10    -0.01   0.01  -0.01
    71   6    -0.02   0.00  -0.01    -0.09   0.05  -0.06    -0.01   0.01  -0.02
    72   1    -0.01   0.01  -0.02    -0.08  -0.04  -0.05    -0.06   0.02  -0.01
    73   1    -0.02   0.00  -0.01    -0.14   0.05  -0.13    -0.00   0.00  -0.01
    74   6    -0.02  -0.00  -0.01     0.09   0.05   0.06    -0.01  -0.01  -0.02
    75   1    -0.02  -0.00  -0.01     0.14   0.05   0.13    -0.00  -0.00  -0.01
    76   1    -0.01  -0.01  -0.02     0.08  -0.04   0.05    -0.06  -0.02  -0.01
                     13                     14                     15
                      A                      A                      A
 Frequencies --    309.1202               329.3687               331.2618
 Red. masses --      7.2177                 6.0818                 7.9791
 Frc consts  --      0.4064                 0.3887                 0.5159
 IR Inten    --      0.0000                 0.0000                 0.0000
  Atom  AN      X      Y      Z        X      Y      Z        X      Y      Z
     1   6    -0.05   0.05   0.06     0.01  -0.03  -0.06     0.03   0.08   0.08
     2   6    -0.05   0.03   0.03    -0.00   0.06   0.01     0.06   0.05   0.01
     3   6    -0.07   0.01   0.01    -0.00   0.07   0.05     0.04   0.02  -0.03
     4   6    -0.06  -0.00   0.06     0.00   0.05  -0.00    -0.00   0.05   0.00
     5   6    -0.06  -0.00   0.10     0.00  -0.01  -0.00    -0.00   0.07  -0.00
     6   6    -0.03   0.02   0.07     0.03  -0.04  -0.06     0.00   0.08   0.06
     7   6    -0.03   0.08   0.05     0.03  -0.04  -0.05     0.01   0.06   0.07
     8   6    -0.03   0.06   0.02     0.02   0.05  -0.01     0.02   0.06   0.03
     9   6    -0.04   0.01   0.01     0.01   0.08   0.03     0.04   0.02  -0.02
    10   6    -0.06  -0.01  -0.01     0.01   0.04   0.04    -0.01  -0.06  -0.08
    11   6    -0.08  -0.01  -0.03     0.01   0.06   0.05    -0.00  -0.04  -0.07
    12   6    -0.07  -0.01   0.01     0.00   0.07  -0.05    -0.04   0.02   0.03
    13   6    -0.05  -0.03   0.03     0.00   0.06  -0.01    -0.06   0.05  -0.01
    14   6    -0.05  -0.05   0.06    -0.01  -0.03   0.06    -0.03   0.08  -0.08
    15   6    -0.03  -0.02   0.07    -0.03  -0.04   0.06    -0.00   0.08  -0.06
    16   6     0.05  -0.00   0.01    -0.04  -0.08   0.04     0.01   0.03  -0.05
    17   6     0.05   0.00   0.01     0.04  -0.08  -0.04    -0.01   0.03   0.05
    18   6     0.12   0.00   0.01     0.07  -0.09  -0.05    -0.01  -0.02   0.06
    19   6     0.02   0.05   0.01     0.06  -0.09  -0.05     0.01  -0.02   0.09
    20   6    -0.03   0.06  -0.00     0.01   0.06  -0.02    -0.00   0.04   0.02
    21   6    -0.01   0.09  -0.05     0.01   0.06  -0.03    -0.01  -0.05   0.08
    22   6     0.02   0.06  -0.01     0.03  -0.02  -0.04     0.03  -0.09   0.11
    23   6     0.10   0.01   0.01     0.01  -0.02  -0.03     0.05  -0.10   0.10
    24   6     0.19  -0.01   0.02     0.03  -0.06  -0.02     0.02  -0.07   0.05
    25   6     0.19   0.01   0.02    -0.03  -0.06   0.02    -0.02  -0.07  -0.05
    26   6     0.12  -0.00   0.01    -0.07  -0.09   0.05     0.01  -0.02  -0.06
    27   6     0.02  -0.05   0.01    -0.06  -0.09   0.05    -0.01  -0.02  -0.09
    28   6    -0.03  -0.08   0.05    -0.03  -0.04   0.05    -0.01   0.06  -0.07
    29   6    -0.08   0.01  -0.03    -0.01   0.06  -0.05     0.00  -0.04   0.07
    30   6    -0.05  -0.02  -0.00    -0.01   0.02  -0.02     0.00   0.08   0.04
    31   6    -0.05  -0.00  -0.00     0.04  -0.04  -0.04    -0.01   0.03   0.07
    32   6    -0.02  -0.01  -0.01     0.12  -0.09  -0.06     0.00   0.02   0.09
    33   6    -0.10   0.00   0.01     0.04  -0.04  -0.03    -0.02   0.07   0.09
    34   6    -0.08  -0.01  -0.01    -0.00   0.02  -0.03    -0.00   0.08   0.08
    35   6    -0.03  -0.06  -0.06    -0.03   0.07   0.04     0.04  -0.03  -0.06
    36   6    -0.01  -0.09  -0.05    -0.01   0.06   0.03     0.01  -0.05  -0.08
    37   6    -0.03  -0.06  -0.00    -0.01   0.06   0.02     0.00   0.04  -0.02
    38   6    -0.03  -0.06   0.02    -0.02   0.05   0.01    -0.02   0.06  -0.03
    39   6    -0.04  -0.01   0.01    -0.01   0.08  -0.03    -0.04   0.02   0.02
    40   6    -0.06   0.01  -0.01    -0.01   0.04  -0.04     0.01  -0.06   0.08
    41   6    -0.02   0.01  -0.01    -0.12  -0.09   0.06    -0.00   0.02  -0.09
    42   6    -0.10  -0.00   0.01    -0.04  -0.04   0.03     0.02   0.07  -0.09
    43   6    -0.08   0.01  -0.01     0.00   0.02   0.03     0.00   0.08  -0.08
    44   6    -0.04  -0.00  -0.05     0.00   0.04  -0.00     0.00   0.05  -0.00
    45   6    -0.02  -0.00  -0.11     0.00   0.07  -0.00    -0.00  -0.00   0.00
    46   6     0.00  -0.03  -0.08    -0.01   0.07   0.03     0.02  -0.04  -0.08
    47   6     0.02  -0.06  -0.01    -0.03  -0.02   0.04    -0.03  -0.09  -0.11
    48   6     0.10  -0.01   0.01    -0.01  -0.02   0.03    -0.05  -0.10  -0.10
    49   6     0.04  -0.01  -0.03    -0.00   0.02   0.03    -0.01  -0.08  -0.07
    50   6     0.04   0.01  -0.03     0.00   0.02  -0.03     0.01  -0.08   0.07
    51   6     0.00   0.03  -0.08     0.01   0.07  -0.03    -0.02  -0.04   0.08
    52   6    -0.03   0.06  -0.06     0.03   0.07  -0.04    -0.04  -0.03   0.06
    53   6    -0.05   0.03  -0.02     0.03   0.05   0.00    -0.03   0.06  -0.04
    54   6    -0.05   0.02  -0.00     0.01   0.02   0.02    -0.00   0.08  -0.04
    55   6    -0.05   0.00  -0.00    -0.04  -0.04   0.04     0.01   0.03  -0.07
    56   6    -0.03   0.01  -0.01    -0.01   0.02  -0.05     0.06  -0.10   0.13
    57   6    -0.03  -0.01  -0.01     0.01   0.02   0.05    -0.06  -0.10  -0.13
    58   6    -0.05  -0.03  -0.02    -0.03   0.05  -0.00     0.03   0.06   0.04
    59   6     0.04  -0.02  -0.00     0.07  -0.07  -0.02     0.05  -0.08   0.10
    60   6     0.04   0.02  -0.00    -0.07  -0.07   0.02    -0.05  -0.08  -0.10
    61   6     0.17  -0.00   0.11    -0.08  -0.10  -0.05    -0.05  -0.08  -0.03
    62   6     0.17   0.00   0.11     0.08  -0.10   0.05     0.05  -0.08   0.03
    63   6     0.09  -0.08  -0.10    -0.08   0.00   0.09    -0.06   0.00   0.07
    64   1     0.21  -0.03  -0.28    -0.16  -0.05   0.23    -0.13  -0.03   0.17
    65   1    -0.00  -0.15  -0.08    -0.08   0.06   0.15    -0.08   0.03   0.12
    66   1    -0.03  -0.15  -0.16    -0.00   0.13   0.06     0.00   0.11   0.05
    67   6     0.09   0.08  -0.10     0.08   0.00  -0.09     0.06   0.00  -0.07
    68   1     0.21   0.03  -0.28     0.16  -0.05  -0.23     0.13  -0.03  -0.17
    69   1    -0.03   0.15  -0.16     0.00   0.13  -0.06    -0.00   0.11  -0.05
    70   1    -0.00   0.15  -0.08     0.08   0.06  -0.15     0.08   0.03  -0.12
    71   6     0.09   0.00   0.04     0.09  -0.03   0.11     0.09  -0.03   0.11
    72   1     0.01  -0.00   0.06     0.04   0.16   0.09     0.10   0.12   0.08
    73   1     0.11   0.00   0.04     0.13  -0.05   0.28     0.12  -0.04   0.23
    74   6     0.09  -0.00   0.04    -0.09  -0.03  -0.11    -0.09  -0.03  -0.11
    75   1     0.11  -0.00   0.04    -0.13  -0.05  -0.28    -0.12  -0.04  -0.23
    76   1     0.01   0.00   0.06    -0.04   0.16  -0.09    -0.10   0.12  -0.08
                     16                     17                     18
                      A                      A                      A
 Frequencies --    349.7049               353.0876               355.4946
 Red. masses --      8.9311                11.3232                11.9956
 Frc consts  --      0.6435                 0.8317                 0.8932
 IR Inten    --      0.0000                 0.0000                 0.0000
  Atom  AN      X      Y      Z        X      Y      Z        X      Y      Z
     1   6     0.01   0.00  -0.03    -0.00  -0.06   0.07     0.04  -0.07  -0.18
     2   6    -0.01  -0.03   0.04     0.00  -0.03   0.07     0.01  -0.08  -0.20
     3   6    -0.02   0.00   0.12     0.01  -0.02   0.07    -0.03  -0.08  -0.17
     4   6    -0.04  -0.00   0.10    -0.00   0.00   0.19     0.00  -0.05  -0.00
     5   6    -0.02  -0.00  -0.08    -0.04   0.00   0.22     0.00  -0.05   0.00
     6   6     0.01  -0.01  -0.12    -0.03  -0.02   0.11     0.07  -0.07  -0.12
     7   6     0.03   0.05  -0.01     0.00  -0.15   0.02    -0.02   0.09  -0.05
     8   6     0.06   0.00   0.04    -0.03  -0.08   0.05    -0.01   0.23  -0.00
     9   6     0.02  -0.09   0.03    -0.01  -0.06   0.03     0.02   0.08  -0.06
    10   6    -0.03  -0.17  -0.02    -0.01   0.01  -0.05     0.04   0.05  -0.00
    11   6    -0.01  -0.01   0.11    -0.06  -0.02  -0.13    -0.03  -0.06  -0.07
    12   6    -0.02  -0.00   0.12     0.01   0.02   0.07     0.03  -0.08   0.17
    13   6    -0.01   0.03   0.04     0.00   0.03   0.07    -0.01  -0.08   0.20
    14   6     0.01  -0.00  -0.03    -0.00   0.06   0.07    -0.04  -0.07   0.18
    15   6     0.01   0.01  -0.12    -0.03   0.02   0.11    -0.07  -0.07   0.12
    16   6     0.05   0.00  -0.15     0.08   0.03  -0.03    -0.04  -0.06   0.04
    17   6     0.05  -0.00  -0.15     0.08  -0.03  -0.03     0.04  -0.06  -0.04
    18   6     0.01   0.05  -0.08     0.08  -0.10  -0.08     0.01  -0.01  -0.00
    19   6    -0.00   0.10  -0.02     0.05  -0.13  -0.04    -0.05   0.05  -0.01
    20   6     0.06   0.04   0.04    -0.03   0.06   0.05     0.00   0.23   0.00
    21   6     0.02   0.10   0.04    -0.01   0.04   0.03    -0.02   0.08   0.06
    22   6    -0.02   0.14  -0.01    -0.01  -0.02  -0.05    -0.04   0.05   0.00
    23   6    -0.05   0.09  -0.00    -0.06   0.03  -0.14     0.02  -0.01   0.02
    24   6    -0.01   0.02  -0.05    -0.02  -0.01  -0.13     0.01  -0.01   0.00
    25   6    -0.01  -0.02  -0.05    -0.02   0.01  -0.13    -0.01  -0.01  -0.00
    26   6     0.01  -0.05  -0.08     0.08   0.10  -0.08    -0.01  -0.01   0.00
    27   6    -0.00  -0.10  -0.02     0.05   0.13  -0.04     0.05   0.05   0.01
    28   6     0.03  -0.05  -0.01     0.00   0.15   0.02     0.02   0.09   0.05
    29   6    -0.01   0.01   0.11    -0.06   0.02  -0.13     0.03  -0.06   0.07
    30   6     0.03   0.03   0.01     0.01  -0.15   0.02    -0.02   0.09  -0.06
    31   6    -0.01   0.12  -0.01     0.06  -0.14  -0.04    -0.05   0.06  -0.01
    32   6     0.00   0.07  -0.07     0.08  -0.12  -0.08    -0.00  -0.01  -0.01
    33   6     0.08  -0.01  -0.14     0.07  -0.03  -0.01     0.04  -0.07  -0.05
    34   6     0.01  -0.01  -0.07    -0.03  -0.02   0.12     0.08  -0.08  -0.13
    35   6    -0.01  -0.03   0.07     0.01  -0.03   0.06     0.01  -0.08  -0.19
    36   6     0.02  -0.10   0.04    -0.01  -0.04   0.03     0.02   0.08  -0.06
    37   6     0.06  -0.04   0.04    -0.03  -0.06   0.05    -0.00   0.23  -0.00
    38   6     0.06  -0.00   0.04    -0.03   0.08   0.05     0.01   0.23   0.00
    39   6     0.02   0.09   0.03    -0.01   0.06   0.03    -0.02   0.08   0.06
    40   6    -0.03   0.17  -0.02    -0.01  -0.01  -0.05    -0.04   0.05   0.00
    41   6     0.00  -0.07  -0.07     0.08   0.12  -0.08     0.00  -0.01   0.01
    42   6     0.08   0.01  -0.14     0.07   0.03  -0.01    -0.04  -0.07   0.05
    43   6     0.01   0.01  -0.07    -0.03   0.02   0.12    -0.08  -0.08   0.13
    44   6    -0.03  -0.00   0.00    -0.04   0.00   0.23     0.00  -0.05  -0.00
    45   6    -0.05  -0.00   0.17     0.01  -0.00   0.17     0.00  -0.05  -0.00
    46   6    -0.03  -0.00   0.15     0.02  -0.02   0.05    -0.03  -0.07  -0.16
    47   6    -0.02  -0.14  -0.01    -0.01   0.02  -0.05     0.04   0.05  -0.00
    48   6    -0.05  -0.09  -0.00    -0.06  -0.03  -0.14    -0.02  -0.01  -0.02
    49   6    -0.04  -0.01   0.09    -0.05  -0.02  -0.14    -0.03  -0.06  -0.06
    50   6    -0.04   0.01   0.09    -0.05   0.02  -0.14     0.03  -0.06   0.06
    51   6    -0.03   0.00   0.15     0.02   0.02   0.05     0.03  -0.07   0.16
    52   6    -0.01   0.03   0.07     0.01   0.03   0.06    -0.01  -0.08   0.19
    53   6    -0.00  -0.00   0.01    -0.00   0.06   0.07    -0.05  -0.08   0.18
    54   6     0.03  -0.03   0.01     0.01   0.15   0.02     0.02   0.09   0.06
    55   6    -0.01  -0.12  -0.01     0.06   0.14  -0.04     0.05   0.06   0.01
    56   6    -0.05   0.12  -0.01    -0.06   0.04  -0.15     0.01  -0.01   0.03
    57   6    -0.05  -0.12  -0.01    -0.06  -0.04  -0.15    -0.01  -0.01  -0.03
    58   6    -0.00   0.00   0.01    -0.00  -0.06   0.07     0.05  -0.08  -0.18
    59   6    -0.01   0.03  -0.05    -0.01  -0.01  -0.13    -0.00  -0.00   0.00
    60   6    -0.01  -0.03  -0.05    -0.01   0.01  -0.13     0.00  -0.00  -0.00
    61   6     0.02  -0.00   0.08     0.02   0.00  -0.01     0.00   0.00   0.00
    62   6     0.02   0.00   0.08     0.02  -0.00  -0.01    -0.00   0.00  -0.00
    63   6     0.01  -0.09  -0.03    -0.00   0.04   0.01     0.00   0.00  -0.00
    64   1     0.10  -0.08  -0.13    -0.03   0.06   0.01     0.00   0.00  -0.00
    65   1    -0.00  -0.11  -0.03    -0.03   0.03   0.02    -0.00  -0.00  -0.00
    66   1    -0.06  -0.15  -0.06     0.01   0.07  -0.00     0.00   0.00  -0.00
    67   6     0.01   0.09  -0.03    -0.00  -0.04   0.01    -0.00   0.00   0.00
    68   1     0.10   0.08  -0.13    -0.03  -0.06   0.01    -0.00   0.00   0.00
    69   1    -0.06   0.15  -0.06     0.01  -0.07  -0.00    -0.00   0.00   0.00
    70   1    -0.00   0.11  -0.03    -0.03  -0.03   0.02     0.00  -0.00   0.00
    71   6    -0.05  -0.05  -0.03    -0.02   0.03  -0.03    -0.00   0.00   0.00
    72   1    -0.10  -0.15  -0.01    -0.08   0.10  -0.02    -0.00   0.01   0.00
    73   1    -0.09  -0.04  -0.14     0.01   0.03   0.04     0.01   0.00   0.01
    74   6    -0.05   0.05  -0.03    -0.02  -0.03  -0.03     0.00   0.00  -0.00
    75   1    -0.09   0.04  -0.14     0.01  -0.03   0.04    -0.01   0.00  -0.01
    76   1    -0.10   0.15  -0.01    -0.08  -0.10  -0.02     0.00   0.01  -0.00
                     19                     20                     21
                      A                      A                      A
 Frequencies --    359.9534               360.1647               361.7598
 Red. masses --     11.9484                 3.5562                10.8821
 Frc consts  --      0.9121                 0.2718                 0.8391
 IR Inten    --      0.0000                 0.0000                 0.0000
  Atom  AN      X      Y      Z        X      Y      Z        X      Y      Z
     1   6     0.16   0.01  -0.02    -0.02   0.01  -0.01    -0.01   0.02   0.02
     2   6     0.15  -0.03   0.06    -0.02  -0.02  -0.01     0.00  -0.03  -0.05
     3   6     0.08  -0.09   0.04    -0.04  -0.01   0.01     0.09   0.02   0.01
     4   6     0.00  -0.06  -0.00    -0.06  -0.00   0.02     0.15   0.00   0.06
     5   6     0.00   0.04  -0.00    -0.06   0.00   0.02     0.15   0.00   0.06
     6   6     0.10   0.08  -0.02    -0.04   0.01   0.00     0.10  -0.02   0.05
     7   6     0.13  -0.02  -0.03     0.02   0.03  -0.00    -0.13   0.04   0.02
     8   6     0.09   0.01   0.02     0.03  -0.01  -0.00    -0.16  -0.01  -0.05
     9   6     0.11   0.03   0.08     0.01  -0.05  -0.01    -0.12  -0.06  -0.11
    10   6     0.07  -0.01   0.10     0.02  -0.04  -0.00    -0.12  -0.08  -0.06
    11   6     0.05  -0.15   0.03    -0.03  -0.01   0.01     0.10   0.01   0.05
    12   6    -0.08  -0.09  -0.04    -0.04   0.01   0.01     0.09  -0.02   0.01
    13   6    -0.15  -0.03  -0.06    -0.02   0.02  -0.01     0.00   0.03  -0.05
    14   6    -0.16   0.01   0.02    -0.02  -0.01  -0.01    -0.01  -0.02   0.02
    15   6    -0.10   0.08   0.02    -0.04  -0.01   0.00     0.10   0.02   0.05
    16   6    -0.07   0.15   0.02    -0.01  -0.00  -0.01     0.14   0.02   0.02
    17   6     0.07   0.15  -0.02    -0.01   0.00  -0.01     0.14  -0.02   0.02
    18   6     0.08   0.08  -0.05     0.03   0.02  -0.00     0.03  -0.02   0.02
    19   6     0.10   0.03  -0.06     0.01   0.05  -0.00    -0.12   0.07  -0.01
    20   6    -0.09   0.01  -0.02     0.03   0.01  -0.00    -0.16  -0.00  -0.05
    21   6    -0.11   0.02  -0.08     0.01   0.05  -0.01    -0.12   0.05  -0.10
    22   6    -0.08  -0.00  -0.10     0.01   0.05  -0.00    -0.13   0.07  -0.06
    23   6    -0.06  -0.06  -0.08     0.02   0.03   0.02    -0.00  -0.01  -0.01
    24   6     0.00   0.01  -0.02     0.06   0.00   0.02     0.06  -0.01   0.02
    25   6    -0.00   0.01   0.02     0.06  -0.00   0.02     0.06   0.01   0.02
    26   6    -0.08   0.08   0.05     0.03  -0.02  -0.00     0.03   0.02   0.02
    27   6    -0.10   0.03   0.06     0.01  -0.05  -0.00    -0.12  -0.07  -0.01
    28   6    -0.13  -0.02   0.03     0.02  -0.03  -0.00    -0.13  -0.04   0.02
    29   6    -0.05  -0.15  -0.03    -0.03   0.01   0.01     0.10  -0.01   0.05
    30   6     0.14  -0.03  -0.04     0.02   0.02  -0.00    -0.14   0.06   0.03
    31   6     0.09   0.03  -0.06     0.02   0.03  -0.00    -0.12   0.08  -0.01
    32   6     0.06   0.09  -0.04     0.03   0.01  -0.01     0.03  -0.01   0.02
    33   6     0.06   0.15  -0.01    -0.02   0.00  -0.01     0.17  -0.02  -0.00
    34   6     0.10   0.07  -0.02    -0.04   0.01  -0.00     0.11  -0.02   0.05
    35   6     0.15  -0.04   0.05    -0.02  -0.02  -0.01    -0.00  -0.01  -0.04
    36   6     0.11   0.02   0.08     0.01  -0.05  -0.01    -0.12  -0.05  -0.10
    37   6     0.09   0.01   0.02     0.03  -0.01  -0.00    -0.16   0.00  -0.05
    38   6    -0.09   0.01  -0.02     0.03   0.01  -0.00    -0.16   0.01  -0.05
    39   6    -0.11   0.03  -0.08     0.01   0.05  -0.01    -0.12   0.06  -0.11
    40   6    -0.07  -0.01  -0.10     0.02   0.04  -0.00    -0.12   0.08  -0.06
    41   6    -0.06   0.09   0.04     0.03  -0.01  -0.01     0.03   0.01   0.02
    42   6    -0.06   0.15   0.01    -0.02  -0.00  -0.01     0.17   0.02  -0.00
    43   6    -0.10   0.07   0.02    -0.04  -0.01  -0.00     0.11   0.02   0.05
    44   6     0.00   0.04  -0.00    -0.05   0.00   0.00     0.15   0.00   0.08
    45   6     0.00  -0.06  -0.00    -0.05  -0.00   0.00     0.15   0.00   0.08
    46   6     0.08  -0.10   0.04    -0.04  -0.01   0.00     0.09   0.03   0.02
    47   6     0.08  -0.00   0.10     0.01  -0.05  -0.00    -0.13  -0.07  -0.06
    48   6     0.06  -0.06   0.08     0.02  -0.03   0.02    -0.00   0.01  -0.01
    49   6     0.06  -0.15   0.04    -0.02  -0.01   0.01     0.09   0.01   0.03
    50   6    -0.06  -0.15  -0.04    -0.02   0.01   0.01     0.09  -0.01   0.03
    51   6    -0.08  -0.10  -0.04    -0.04   0.01   0.00     0.09  -0.03   0.02
    52   6    -0.15  -0.04  -0.05    -0.02   0.02  -0.01    -0.00   0.01  -0.04
    53   6    -0.17   0.00   0.02    -0.02  -0.00  -0.01    -0.01  -0.04   0.04
    54   6    -0.14  -0.03   0.04     0.02  -0.02  -0.00    -0.14  -0.06   0.03
    55   6    -0.09   0.03   0.06     0.02  -0.03  -0.00    -0.12  -0.08  -0.01
    56   6    -0.05  -0.07  -0.07     0.02   0.02   0.02     0.00  -0.01  -0.00
    57   6     0.05  -0.07   0.07     0.02  -0.02   0.02     0.00   0.01  -0.00
    58   6     0.17   0.00  -0.02    -0.02   0.00  -0.01    -0.01   0.04   0.04
    59   6    -0.00   0.01  -0.01     0.04   0.01   0.01     0.02  -0.01   0.02
    60   6     0.00   0.01   0.01     0.04  -0.01   0.01     0.02   0.01   0.02
    61   6     0.00   0.00  -0.00     0.02   0.00  -0.10    -0.02   0.00  -0.05
    62   6    -0.00   0.00   0.00     0.02  -0.00  -0.10    -0.02  -0.00  -0.05
    63   6    -0.00   0.01   0.00    -0.05   0.21   0.06    -0.02   0.06   0.03
    64   1    -0.01   0.01   0.01    -0.19   0.20   0.20    -0.07   0.05   0.09
    65   1    -0.00   0.00   0.00    -0.09   0.22   0.11    -0.00   0.08   0.03
    66   1     0.01   0.01   0.01     0.06   0.35   0.04     0.03   0.11   0.04
    67   6     0.00   0.01  -0.00    -0.05  -0.21   0.06    -0.02  -0.06   0.03
    68   1     0.01   0.01  -0.01    -0.19  -0.20   0.20    -0.07  -0.05   0.09
    69   1    -0.01   0.01  -0.01     0.06  -0.35   0.04     0.03  -0.11   0.04
    70   1     0.00   0.00  -0.00    -0.09  -0.22   0.11    -0.00  -0.08   0.03
    71   6    -0.01  -0.00  -0.00     0.06   0.07   0.01     0.02   0.02   0.01
    72   1    -0.01  -0.02  -0.00     0.12   0.18  -0.02     0.06   0.07  -0.01
    73   1    -0.02   0.00  -0.03     0.08   0.06   0.14     0.03   0.01   0.06
    74   6     0.01  -0.00   0.00     0.06  -0.07   0.01     0.02  -0.02   0.01
    75   1     0.02   0.00   0.03     0.08  -0.06   0.14     0.03  -0.01   0.06
    76   1     0.01  -0.02   0.00     0.12  -0.18  -0.02     0.06  -0.07  -0.01
                     22                     23                     24
                      A                      A                      A
 Frequencies --    366.0029               369.5242               371.4341
 Red. masses --     11.4253                 8.9065                11.6818
 Frc consts  --      0.9018                 0.7165                 0.9496
 IR Inten    --      0.0000                 0.0000                 0.0000
  Atom  AN      X      Y      Z        X      Y      Z        X      Y      Z
     1   6     0.12  -0.10   0.03     0.01   0.04  -0.06    -0.03   0.15   0.09
     2   6     0.12   0.06   0.00    -0.02   0.04  -0.06    -0.01   0.15   0.09
     3   6     0.06   0.07   0.03    -0.10   0.02   0.02    -0.06   0.03  -0.07
     4   6     0.00   0.05   0.00    -0.08  -0.00   0.11    -0.02   0.00  -0.08
     5   6     0.00  -0.10   0.00    -0.06  -0.00   0.15     0.01  -0.00  -0.05
     6   6     0.09  -0.11  -0.01     0.02   0.04   0.08     0.06   0.04  -0.03
     7   6     0.08  -0.08   0.08     0.07   0.02  -0.10    -0.04   0.15   0.08
     8   6     0.04  -0.02   0.00     0.05   0.00  -0.13    -0.01   0.12   0.09
     9   6     0.10   0.07  -0.04     0.01   0.01  -0.09     0.02   0.14   0.08
    10   6     0.09   0.08  -0.12     0.00   0.01  -0.03    -0.01   0.04   0.01
    11   6     0.05   0.11  -0.02    -0.14  -0.00  -0.00    -0.13  -0.01  -0.13
    12   6    -0.06   0.07  -0.03    -0.10  -0.02   0.02    -0.06  -0.03  -0.07
    13   6    -0.12   0.06  -0.00    -0.02  -0.04  -0.06    -0.01  -0.15   0.09
    14   6    -0.12  -0.10  -0.03     0.01  -0.04  -0.06    -0.03  -0.15   0.09
    15   6    -0.09  -0.11   0.01     0.02  -0.04   0.08     0.06  -0.04  -0.03
    16   6    -0.05  -0.10  -0.03     0.09  -0.01   0.06     0.15   0.00  -0.07
    17   6     0.05  -0.10   0.03     0.09   0.01   0.06     0.15  -0.00  -0.07
    18   6     0.01  -0.04   0.09     0.09   0.01   0.06     0.08   0.00  -0.03
    19   6    -0.00  -0.02   0.15     0.06   0.00  -0.04     0.02   0.04   0.02
    20   6    -0.04  -0.04  -0.01     0.05  -0.00  -0.13    -0.01  -0.12   0.09
    21   6    -0.11   0.05   0.04     0.01  -0.01  -0.10     0.02  -0.15   0.09
    22   6    -0.10   0.08   0.12    -0.00   0.00  -0.05    -0.02  -0.03   0.02
    23   6    -0.08   0.10   0.05    -0.10   0.00   0.03    -0.06   0.00  -0.06
    24   6    -0.03   0.04   0.05    -0.01   0.00   0.11     0.01   0.00  -0.03
    25   6     0.03   0.04  -0.05    -0.01  -0.00   0.11     0.01  -0.00  -0.03
    26   6    -0.01  -0.04  -0.09     0.09  -0.01   0.06     0.08  -0.00  -0.03
    27   6     0.00  -0.02  -0.15     0.06  -0.00  -0.04     0.02  -0.04   0.02
    28   6    -0.08  -0.08  -0.08     0.07  -0.02  -0.10    -0.04  -0.15   0.08
    29   6    -0.05   0.11   0.02    -0.14   0.00  -0.00    -0.13   0.01  -0.13
    30   6     0.08  -0.10   0.08     0.06   0.02  -0.09    -0.04   0.15   0.07
    31   6    -0.01  -0.02   0.14     0.04   0.02  -0.03     0.01   0.04   0.02
    32   6    -0.02  -0.03   0.09     0.05   0.02   0.07     0.06   0.01  -0.03
    33   6     0.03  -0.10   0.03     0.10   0.00   0.05     0.16  -0.01  -0.07
    34   6     0.08  -0.11  -0.01     0.05   0.04   0.06     0.07   0.04  -0.04
    35   6     0.13   0.04   0.00    -0.00   0.04  -0.06    -0.01   0.15   0.10
    36   6     0.11   0.05  -0.04     0.01   0.01  -0.10     0.02   0.15   0.09
    37   6     0.04  -0.04   0.01     0.05   0.00  -0.13    -0.01   0.12   0.09
    38   6    -0.04  -0.02  -0.00     0.05  -0.00  -0.13    -0.01  -0.12   0.09
    39   6    -0.10   0.07   0.04     0.01  -0.01  -0.09     0.02  -0.14   0.08
    40   6    -0.09   0.08   0.12     0.00  -0.01  -0.03    -0.01  -0.04   0.01
    41   6     0.02  -0.03  -0.09     0.05  -0.02   0.07     0.06  -0.01  -0.03
    42   6    -0.03  -0.10  -0.03     0.10  -0.00   0.05     0.16   0.01  -0.07
    43   6    -0.08  -0.11   0.01     0.05  -0.04   0.06     0.07  -0.04  -0.04
    44   6     0.00  -0.10   0.00    -0.03  -0.00   0.13     0.03  -0.00  -0.06
    45   6     0.00   0.05   0.00    -0.06  -0.00   0.15    -0.01  -0.00  -0.06
    46   6     0.08   0.07   0.04    -0.09   0.03   0.05    -0.05   0.04  -0.06
    47   6     0.10   0.08  -0.12    -0.00  -0.00  -0.05    -0.02   0.03   0.02
    48   6     0.08   0.10  -0.05    -0.10  -0.00   0.03    -0.06  -0.00  -0.06
    49   6     0.06   0.12  -0.01    -0.14  -0.00   0.01    -0.12  -0.00  -0.12
    50   6    -0.06   0.12   0.01    -0.14   0.00   0.01    -0.12   0.00  -0.12
    51   6    -0.08   0.07  -0.04    -0.09  -0.03   0.05    -0.05  -0.04  -0.06
    52   6    -0.13   0.04  -0.00    -0.00  -0.04  -0.06    -0.01  -0.15   0.10
    53   6    -0.12  -0.11  -0.02     0.03  -0.04  -0.06    -0.03  -0.15   0.09
    54   6    -0.08  -0.10  -0.08     0.06  -0.02  -0.09    -0.04  -0.15   0.07
    55   6     0.01  -0.02  -0.14     0.04  -0.02  -0.03     0.01  -0.04   0.02
    56   6    -0.06   0.10   0.06    -0.06  -0.01   0.05    -0.04  -0.01  -0.05
    57   6     0.06   0.10  -0.06    -0.06   0.01   0.05    -0.04   0.01  -0.05
    58   6     0.12  -0.11   0.02     0.03   0.04  -0.06    -0.03   0.15   0.09
    59   6    -0.03   0.03   0.05    -0.01  -0.00   0.12     0.01   0.00  -0.01
    60   6     0.03   0.03  -0.05    -0.01   0.00   0.12     0.01  -0.00  -0.01
    61   6     0.02  -0.03   0.01    -0.10  -0.00  -0.06     0.01   0.00  -0.03
    62   6    -0.02  -0.03  -0.01    -0.10   0.00  -0.06     0.01  -0.00  -0.03
    63   6    -0.02   0.02   0.02     0.05  -0.11  -0.03    -0.00   0.04   0.01
    64   1    -0.05   0.04   0.03     0.06  -0.15   0.00    -0.03   0.04   0.04
    65   1    -0.07   0.00   0.05     0.19  -0.07  -0.12    -0.01   0.04   0.02
    66   1     0.01   0.08  -0.01     0.07  -0.19   0.06     0.02   0.07   0.01
    67   6     0.02   0.02  -0.02     0.05   0.11  -0.03    -0.00  -0.04   0.01
    68   1     0.05   0.04  -0.03     0.06   0.15   0.00    -0.03  -0.04   0.04
    69   1    -0.01   0.08   0.01     0.07   0.19   0.06     0.02  -0.07   0.01
    70   1     0.07   0.00  -0.05     0.19   0.07  -0.12    -0.01  -0.04   0.02
    71   6    -0.03  -0.01   0.01     0.00  -0.00   0.05     0.01   0.02  -0.00
    72   1     0.00  -0.03   0.00     0.10   0.02   0.02     0.01   0.04  -0.01
    73   1    -0.07  -0.00  -0.01     0.01  -0.00   0.06     0.01   0.01   0.02
    74   6     0.03  -0.01  -0.01     0.00   0.00   0.05     0.01  -0.02  -0.00
    75   1     0.07  -0.00   0.01     0.01   0.00   0.06     0.01  -0.01   0.02
    76   1    -0.00  -0.03  -0.00     0.10  -0.02   0.02     0.01  -0.04  -0.01
[...]
 0000064,0.00000274,-0.00004958,-0.00000379,-0.00000395,-0.00034161,0.0
 0009656,0.00016306,-0.00004429,0.00007518,-0.00010067,0.00009089,0.000
 00240,-0.00001155,0.00000410,-0.00000213,0.00000228,0.,0.,0.,0.,0.,0.,
 0.,0.,0.,0.00000120,0.,0.00000015,0.00000209,0.00000364,-0.00000450,0.
 00052676,0.00017721,0.00070997,0.00004733,-0.00003285,0.00005629,0.000
 21232,0.00039152,0.00050278,-0.00099759,-0.00036363,-0.00154951,-0.000
 25958,-0.00045703,0.00103763,0.00013798,0.00015780,-0.00031544,-0.0000
 0675,-0.00001462,-0.00000601,0.00001400,0.00000709,-0.00000134,0.00002
 399,0.00002726,-0.00000926,-0.00003368,-0.00004787,0.00002703,0.000008
 51,0.00005072,-0.00000120,-0.00017066,-0.00011376,0.00056420,0.0201266
 1,0.00485169,-0.00820543,0.00036611,0.00100620,-0.00258237,-0.00014713
 ,-0.00013200,0.00025682,0.00015645,0.00015054,0.00005176,-0.00018029,-
 0.00001654,0.00014002,0.00005049,0.00000522,-0.00002351,0.00000051,0.,
 -0.00000006,0.,0.,0.,0.00000530,0.00000247,-0.00000011,-0.00004233,-0.
 00000689,0.00000272,-0.00001619,0.00003987,0.00000884,0.00019501,-0.00
 008111,-0.00000669,-0.00078282,0.00011688,0.00038720,-0.00071521,0.000
 89444,0.00068421,0.00268996,0.00036874,0.00071081,0.00022777,0.0002634
 8,-0.00063316,-0.01910460,-0.00701888,0.00271427,0.00008603,-0.0001118
 1,-0.00000621,0.00133062,-0.00005249,0.00232132,0.02534951,0.00693668,
 -0.07000764,-0.06012331,0.03203522,-0.12461006,-0.00278879,0.01310149,
 0.00247501,-0.01989897,0.00255558,-0.01171159,0.00176970,0.00111290,-0
 .00062970,0.00021784,0.00175435,0.00184400,-0.00148934,-0.00154147,-0.
 00014038,0.00056074,-0.00215514,0.00523528,-0.00019062,0.00026493,-0.0
 0014080,-0.00053635,-0.00026353,-0.00037519,0.00000779,0.00003098,0.00
 001041,-0.00282052,0.00053565,-0.00691776,0.00006071,-0.00372828,0.001
 48307,0.00015336,-0.00038220,0.00046218,0.00257921,0.02554725,0.539555
 67,-0.00005083,-0.00012443,-0.00018729,-0.00022451,0.00083330,0.000165
 95,0.00123707,-0.00015022,0.00083306,0.00005626,0.00013088,0.00020040,
 -0.00007107,-0.00007444,-0.00006378,0.00005385,0.00005285,0.00002134,0
 .00010734,0.00005249,0.00027805,-0.00058094,0.00033514,-0.00108024,-0.
 00147562,0.00151095,-0.00049076,-0.00022299,-0.00006416,0.00011780,-0.
 00103311,-0.00106762,-0.00121756,0.00001925,0.00012246,0.00011332,0.00
 001351,-0.00005695,0.00000790,0.00000196,0.00000545,-0.00000218,0.0000
 1422,-0.00000275,0.00000029,0.00000203,0.00000101,-0.00000079,-0.00000
 804,-0.00001058,-0.00000538,-0.00002395,-0.00000785,0.00000785,-0.0000
 6576,0.00001278,-0.00006995,-0.00004887,0.00020008,0.00087022,-0.00005
 043,0.00007969,-0.00025563,0.00003451,0.00002199,0.00007320,-0.0000292
 7,-0.00000816,0.00000286,0.,0.,0.,0.,0.,0.,0.,0.,0.,0.,0.,0.,0.0000004
 9,0.00000041,-0.00000034,0.00051881,-0.00019361,-0.00007020,0.00000128
 ,0.00002349,-0.00001418,-0.00004985,-0.00017667,0.00014007,0.00007527,
 0.00044492,0.00011771,0.00020415,0.00058897,-0.00033887,0.00015648,0.0
 0022201,-0.00018682,0.00002682,0.00002972,-0.00000457,-0.00000912,-0.0
 0000422,0.00000149,0.00000105,0.00000082,0.00001123,0.00000376,0.00000
 865,-0.00001016,-0.00002296,0.00001090,-0.00002002,-0.00001794,-0.0000
 0719,-0.00014245,0.00063422,-0.00082541,-0.00033558,-0.00051310,-0.001
 49267,0.00142859,0.00086945,-0.00090163,-0.00048532,-0.00006851,0.0002
 1336,-0.00025943,-0.00000292,-0.00006941,0.00008299,0.00001218,0.00000
 184,-0.00000724,0.,0.,0.,0.,0.,0.,0.00000972,0.00000487,-0.00000028,0.
 00000506,-0.00001221,0.00000995,0.00005664,0.00009695,-0.00007291,-0.0
 0000954,-0.00014454,0.00025128,-0.00021850,0.00060852,-0.00026702,-0.0
 0041343,0.00125818,0.00026597,-0.00017206,-0.00042425,0.00051420,-0.00
 025023,0.00039791,0.00012501,0.00133606,-0.00117763,-0.00039863,-0.000
 05722,-0.00010050,0.00001312,-0.00332852,-0.00057282,0.00117723,-0.003
 85846,-0.03372717,-0.00325660,0.00011011,0.02191421,0.00153829,-0.0019
 4081,0.00014632,-0.00298052,0.00005521,0.00096384,0.00076542,-0.001710
 88,0.00038782,-0.00084631,-0.00009062,0.00006837,-0.00073876,-0.000212
 87,-0.00036533,-0.00017530,0.00007137,0.00022285,-0.00009291,0.0000140
 1,0.00007514,-0.00006757,-0.00007488,0.00025192,-0.00022055,-0.0000262
 5,-0.00012592,0.00013679,-0.00003634,0.00055390,0.00015336,0.00017780,
 0.00021257,0.00025641,0.00002209,-0.00004429,-0.00000377,-0.04806762,0
 .00417635,0.00076830,0.05817995,-0.00004431,0.00003372,0.00001572,-0.0
 0006810,0.00019368,0.00004882,0.00043437,0.00004099,0.00053307,-0.0001
 4303,-0.00005311,-0.00006024,0.00003516,0.00001398,0.00000888,0.000030
 37,-0.00000933,0.00000286,0.00001371,-0.00000797,-0.00003121,-0.000036
 32,0.00005391,0.00003441,0.00020176,0.00035297,-0.00010573,0.00072854,
 -0.00046358,-0.00013641,-0.00046219,0.00030613,-0.00078419,0.00009529,
 0.00015790,0.00019251,0.00004299,-0.00001012,0.00001169,0.00000096,0.0
 0000086,-0.00000070,0.00002041,-0.00000022,0.00000002,0.00000058,0.000
 00029,-0.00000022,0.00000630,0.00000208,-0.00000126,0.00000185,0.00000
 118,-0.00000011,-0.00000290,-0.00000133,0.00001133,-0.00001372,0.00004
 576,-0.00003107,0.00006034,-0.00001877,0.00000306,-0.00001954,-0.00000
 325,-0.00000715,0.00000070,0.00000189,-0.00000128,0.,0.,0.,0.,0.,0.,0.
 ,0.,0.,0.,0.,0.,0.00000029,0.00000035,-0.00000033,-0.00027743,-0.00098
 777,-0.00036888,-0.00003196,-0.00002457,-0.00000863,-0.00017609,-0.000
 38363,0.00020807,-0.00006819,0.00048564,0.00001303,-0.00007107,-0.0005
 4445,-0.00006773,0.00024060,0.00035717,-0.00034192,0.00002157,0.000017
 58,-0.00000660,-0.00001620,-0.00000726,0.00000296,-0.00000137,-0.00000
 012,0.00001572,-0.00000358,0.00000338,-0.00000905,-0.00006120,-0.00001
 611,-0.00004324,-0.00006555,-0.00020011,-0.00014818,-0.00167083,-0.001
 47429,-0.00041173,-0.00008345,0.00055536,-0.00008136,0.00018036,0.0000
 3967,-0.00059606,-0.00013484,-0.00003995,0.00009913,0.00005725,0.00003
 249,-0.00003455,0.00002002,0.00000104,-0.00000877,0.,0.,0.,0.,0.,0.,0.
 00000353,0.00000165,-0.00000008,0.00001495,0.00000366,-0.00000193,0.00
 000564,-0.00001053,-0.00000602,-0.00003564,0.00002877,0.00000484,0.000
 11949,0.00014476,-0.00022658,0.00012029,0.00056774,0.00019227,0.000779
 40,-0.00170709,0.00038327,-0.00001570,0.00065528,0.00046901,-0.0023217
 8,-0.00141123,0.00131330,-0.00007119,-0.00007033,0.00001888,-0.0023322
 5,-0.00158571,0.00008192,0.00136387,-0.00589963,-0.00206857,0.00160223
 ,-0.01194262,-0.00112720,0.00393248,-0.00326408,0.00219310,-0.00129333
 ,0.00006127,-0.00111046,0.00181741,0.00060143,0.00036827,0.00029878,0.
 00069277,0.00153320,-0.00037568,0.00001938,-0.00020753,-0.00046054,-0.
 00008568,-0.00030675,-0.00011249,-0.00009487,0.00007321,0.00049809,-0.
 00021403,0.00060031,0.00006403,-0.00001580,-0.00015676,-0.00067048,0.0
 0148490,0.00038220,0.00019052,-0.00010731,-0.00016958,0.00004429,0.000
 77656,-0.00002664,-0.00131377,-0.28400555,-0.03190321,-0.00128822,0.31
 233931,0.00000780,-0.00002084,-0.00001960,-0.00009026,0.00029090,-0.00
 002858,0.00041843,0.00001865,0.00005158,-0.00004100,-0.00003260,0.0000
 3297,0.00002052,-0.00000086,-0.00000365,0.00003148,0.00001273,0.000010
 67,-0.00014256,0.00002471,-0.00003357,0.00029483,-0.00017453,0.0001866
 3,0.00026433,-0.00000630,-0.00000117,-0.00084245,0.00029675,0.00096719
 ,0.00035164,0.00017794,0.00020797,-0.00002881,0.00004317,0.00004331,0.
 00002205,-0.00001116,0.00001367,0.00000077,0.00000256,-0.00000115,0.00
 000855,-0.00000173,0.00000009,0.00000110,0.00000055,-0.00000043,0.0000
 0304,-0.00000134,-0.00000267,-0.00000570,-0.00000138,0.00000214,0.0000
 6969,0.00000719,0.00000382,0.00000849,-0.00000651,-0.00012024,0.000101
 57,-0.00004576,0.00003529,-0.00010070,-0.00001545,0.00000390,0.0000194
 9,0.00000374,-0.00000092,0.,0.,0.,0.,0.,0.,0.,0.,0.,0.,0.,0.,0.0000004
 1,0.00000029,-0.00000022,-0.00018935,-0.00015948,-0.00048501,0.0000041
 2,-0.00002665,0.00001263,0.00002137,0.00000727,-0.00000958,0.00040093,
 0.00025690,-0.00049150,-0.00038773,-0.00014726,-0.00008183,-0.00015911
 ,-0.00023552,0.00019276,-0.00002965,-0.00003399,0.00000462,0.00000803,
 0.00000391,-0.00000103,-0.00001313,-0.00001346,-0.00000114,0.00000663,
 0.00000916,-0.00000584,-0.00001595,-0.00000084,-0.00000341,0.00002266,
 -0.00000654,-0.00008277,0.00235997,0.00242874,0.00031187,-0.00008512,0
 .00041309,-0.00012754,-0.00077789,0.00019185,-0.00005888,0.00016384,-0
 .00002473,0.00005257,-0.00009139,-0.00000876,0.00001932,-0.00001412,-0
 .00000040,0.00000819,0.,0.,0.,0.,0.,0.,-0.00001059,-0.00000521,0.00000
 029,-0.00001897,0.00000488,-0.00000506,-0.00005595,-0.00006860,0.00007
 213,0.00003157,0.00008372,-0.00015908,-0.00005835,-0.00047850,0.000410
 45,-0.00003969,-0.00002888,-0.00007178,-0.00095204,0.00029642,-0.00006
 198,-0.00031468,-0.00004570,0.00028397,-0.00166658,-0.00177511,-0.0012
 0995,0.00002957,0.00006210,0.00001802,0.00144428,0.00092654,0.00050846
 ,0.00281027,0.00807608,-0.00056888,-0.00071275,0.02325203,-0.00039992,
 -0.00267667,0.00017268,-0.00117200,0.00119433,0.00040799,0.00052789,-0
 .00110301,0.00035242,0.00002065,-0.00126834,0.00041012,-0.00197201,-0.
 00000495,-0.00024018,-0.00014924,-0.00008717,0.00022767,0.00020705,0.0
 0010239,-0.00011543,0.00000219,-0.00011808,0.00018636,-0.00005466,-0.0
 0005360,0.00007138,-0.00002873,-0.00038420,0.00111280,0.00046218,0.000
 08400,-0.00030931,0.00001926,-0.00000377,0.00002664,-0.00008479,-0.001
 07400,-0.03469155,-0.05217599,0.00272490,0.03177764,0.06141772,-0.0001
 3565,0.00000937,0.00003749,-0.00000455,-0.00032646,-0.00040240,0.00002
 582,0.00094984,-0.00015340,0.00016421,-0.00010956,0.00003126,0.0000521
 2,0.00012436,0.00002026,0.00004120,-0.00001750,-0.00001501,-0.00006244
 ,-0.00001679,-0.00006586,0.00007200,-0.00004971,0.00024262,-0.00012673
 ,0.00016611,-0.00039858,0.00065711,-0.00065665,0.00011890,-0.00172332,
 -0.00010492,-0.00062452,0.00012465,0.00037316,0.00001888,0.00001971,-0
 .00009244,0.00004628,0.00004651,0.00001985,-0.00000076,0.00002619,-0.0
 0000930,0.00000274,0.00001397,0.00000695,-0.00000540,0.00000761,0.0000
 0685,0.00000232,0.00001055,0.00000502,-0.00000198,-0.00001886,-0.00000
 947,0.00000982,-0.00005617,0.00004980,-0.00009859,0.00000696,-0.000000
 64,0.00000658,0.00004885,0.00000617,-0.00004275,-0.00000009,-0.0000000
 4,0.00000008,0.,0.,0.,0.,0.,0.,0.,0.,0.,-0.00000266,-0.00000002,0.0000
 0053,-0.00000738,-0.00000356,0.00000257,0.00020737,-0.00088663,-0.0004
 6820,0.00009491,0.00008246,-0.00009960,-0.00007735,-0.00006742,0.00023
 027,-0.00021903,-0.00049400,-0.00039460,0.00051305,0.00025981,0.000007
 55,-0.00012472,-0.00000845,-0.00004912,-0.00002077,-0.00001031,0.00000
 918,0.00001103,0.00000324,-0.00000745,-0.00000242,0.00000591,0.0000136
 9,0.00002182,0.00002085,-0.00004841,-0.00018862,0.00000511,-0.00004509
 ,0.00034413,-0.00024651,0.00027052,-0.00335963,-0.00272753,-0.00123704
 ,0.00039901,-0.00022541,0.00007528,0.00008377,0.00003142,0.00001014,-0
 .00007449,-0.00003330,0.00004379,0.00001146,0.00001202,-0.00001294,0.0
 0001340,-0.00000173,-0.00000650,-0.00000379,-0.00000003,0.00000208,0.,
 0.,0.,0.,0.,0.,0.,0.,0.,0.00003946,-0.00000276,-0.00002080,-0.00001468
 ,0.00000984,-0.00000854,0.00011076,-0.00002721,-0.00010944,0.00000857,
 0.00008792,0.00011965,-0.00027326,0.00075434,0.00023038,0.00000358,-0.
 00047064,0.00043178,0.00140905,-0.00046576,0.00158846,0.00005363,0.000
 05179,-0.00004527,-0.00068039,0.00250259,0.00035841,-0.01586074,0.0038
 5985,0.02925206,0.00509601,-0.00321383,-0.02075698,-0.00145217,-0.0014
 9384,-0.00130606,0.00008238,0.00076216,0.00077095,-0.00049349,-0.00021
 834,0.00119592,0.00048218,0.00006261,-0.00026132,-0.00011839,0.0002899
 8,-0.00028475,-0.00071839,0.00072597,-0.00044836,0.00018834,0.00002762
 ,0.00009449,-0.00023379,0.00037937,-0.00027443,-0.00003146,0.00043360,
 -0.00016573,0.00116402,0.00070576,0.00006071,0.00022083,-0.00119308,0.
 00024217,0.00017780,-0.00019052,0.00008400,-0.05341170,0.01274655,0.05
 264969,0.00095606,0.00069451,0.00058524,0.06648701,0.00000060,-0.00001
 775,-0.00003875,-0.00006438,-0.00003166,0.00014172,-0.00027308,-0.0001
 0110,-0.00011075,-0.00000470,0.00002260,-0.00000143,-0.00000717,-0.000
 02079,-0.00001158,0.00000852,0.00001174,0.00000473,-0.00001475,0.00002
 486,0.00003798,0.00000024,0.00000129,-0.00012456,-0.00007900,-0.000423
 61,0.00022881,0.00098284,0.00001085,-0.00051473,0.00008850,-0.00031405
 ,0.00008898,0.00000364,0.00006328,-0.00000234,0.00002361,-0.00003734,0
 .00003536,0.00002912,0.00001205,-0.00000026,0.00002135,0.00000393,-0.0
 0000139,-0.00000008,-0.00000004,0.00000003,-0.00000511,-0.00000306,-0.
 00000018,-0.00000512,-0.00000202,0.00000133,0.00001046,0.00000247,-0.0
 0000703,-0.00002516,0.00001594,0.00008690,-0.00000512,0.00000163,-0.00
 000318,-0.00002029,-0.00000254,0.00001764,0.00000004,0.00000002,-0.000
 00003,0.,0.,0.,0.,0.,0.,0.,0.,0.,-0.00000297,-0.00000002,0.00000059,-0
 .00000504,-0.00000170,0.00000122,0.00058687,-0.00005905,-0.00004819,0.
 00005444,0.00001836,-0.00008159,0.00040477,0.00025697,-0.00009817,0.00
 006255,-0.00141023,-0.00010297,0.00003530,-0.00034215,0.00033695,-0.00
 008028,0.00003932,-0.00002581,-0.00001706,-0.00000604,0.00000857,0.000
 01027,0.00000244,-0.00000834,0.00000763,0.00001474,0.00000660,0.000027
 94,0.00001990,-0.00004185,-0.00026895,-0.00007397,-0.00006831,0.000587
 14,0.00035946,0.00045327,-0.00042606,0.00019145,-0.00079898,0.00006114
 ,-0.00000833,-0.00025586,-0.00003461,-0.00004017,0.00004477,-0.0000111
 7,0.00000144,-0.00001055,-0.00000839,-0.00000031,0.00000635,0.00001597
 ,0.00000052,-0.00000770,-0.00000423,-0.00000003,0.00000232,0.,0.,0.,0.
 ,0.,0.,0.,0.,0.,0.00000406,-0.00000259,-0.00000074,-0.00000055,-0.0000
 0706,0.00001131,0.00000984,-0.00000608,-0.00001302,-0.00006204,-0.0000
 1954,-0.00003682,-0.00009128,-0.00050321,0.00014941,-0.00042270,-0.000
 68883,0.00014320,0.00014514,0.00129402,0.00023024,0.00002190,0.0000186
 6,-0.00001915,-0.00263623,0.00182931,0.00162004,-0.00474644,0.00179719
 ,0.01137007,-0.00207165,0.00197710,0.01578725,-0.00049733,0.00020964,-
 0.00143726,-0.00053083,-0.00086758,-0.00032680,0.00031915,-0.00031413,
 0.00084382,0.00034541,-0.00011197,0.00016927,0.00026051,0.00050611,0.0
 0013021,-0.00029915,-0.00022837,-0.00012577,-0.00037554,0.00037959,-0.
 00016485,0.00017429,-0.00004562,0.00004475,0.00019158,-0.00034199,0.00
 026010,0.00053596,-0.00160933,0.00372829,0.00119308,-0.00260173,-0.002
 14914,-0.00021258,-0.00010731,0.00030931,0.01296661,-0.05843392,-0.043
 62164,0.00697700,-0.00541507,-0.03290304,-0.01285843,0.06511337,0.0001
 1577,-0.00004887,0.00000153,0.00024178,-0.00009249,-0.00019863,-0.0004
 2694,0.00034550,0.00015065,0.00005971,-0.00001157,0.00003232,0.0000184
 5,0.00002116,0.00000375,-0.00002666,0.00000017,-0.00001007,0.00004668,
 -0.00000793,0.00001325,0.00003767,-0.00004009,-0.00001079,0.00021128,-
 0.00007103,-0.00009156,0.00083777,-0.00098754,-0.00026236,-0.00056894,
 -0.00039488,-0.00030357,-0.00011740,-0.00007782,-0.00012523,-0.0000043
 6,-0.00000247,-0.00000001,0.00000482,0.00000192,-0.00000033,0.00000523
 ,-0.00000337,0.00000123,0.00000355,0.00000177,-0.00000137,-0.00000244,
 -0.00000085,0.00000045,-0.00000167,-0.00000043,0.00000063,-0.00000189,
 -0.00000029,-0.00000360,0.00010709,-0.00007379,-0.00004962,-0.00000951
 ,-0.00000108,0.00000553,-0.00000677,-0.00000057,0.00000463,0.,0.,0.,0.
 ,0.,0.,0.,0.,0.,0.,0.,0.,0.00000072,0.,-0.00000014,-0.00000075,-0.0000
 0099,0.00000072,0.00076262,0.00045282,0.00080105,-0.00003945,-0.000026
 15,0.00008289,-0.00028758,-0.00014751,-0.00013385,0.00019718,0.0002228
 5,0.00106751,-0.00050454,-0.00005204,-0.00092418,0.00017824,-0.0000187
 9,0.00011447,0.00002873,0.00001485,-0.00001288,-0.00000683,-0.00000383
 ,0.00000089,-0.00000757,-0.00001213,-0.00000891,0.00002544,0.00002180,
 0.00001206,-0.00000834,-0.00005075,0.00001112,-0.00027832,0.00007080,-
 0.00007033,0.00275240,0.00171494,0.00001536,-0.00045037,0.00006975,0.0
 0025493,-0.00016312,0.00000258,0.00014244,0.00013697,0.00004925,-0.000
 09667,-0.00001096,-0.00001424,0.00001255,-0.00001929,0.00000261,0.0000
 0904,0.00000103,0.,-0.00000056,0.,0.,0.,0.,0.,0.,0.,0.,0.,-0.00005437,
 0.00000520,0.00002730,0.00002769,-0.00000479,-0.00001766,-0.00020179,0
 .00008013,0.00020496,0.00005009,-0.00011023,-0.00008511,0.00051607,-0.
 00056924,-0.00014929,-0.00092053,-0.00036088,-0.00008872,0.00096464,0.
 00228747,0.00167144,-0.00006755,-0.00006298,0.00004235,0.00213737,-0.0
 0089683,-0.00122937,0.00092521,-0.00399723,-0.00625924,-0.00218886,-0.
 00006037,-0.01647478,-0.00180331,-0.00457690,-0.00144789,0.00000678,0.
 00297026,-0.00112604,-0.00004892,-0.00031056,0.00078766,0.00112822,0.0
 0018569,0.00096086,-0.00079973,0.00014841,-0.00055361,0.00027104,0.000
 60366,0.00005830,0.00019009,-0.00011629,-0.00007894,-0.00046450,0.0005
 5076,-0.00011769,-0.00013644,0.00039531,-0.00017878,0.00003722,0.00014
 117,0.00148307,0.00024217,0.00214914,-0.00087818,0.00025641,0.00016958
 ,0.00001926,0.05691510,-0.04633833,-0.28069559,0.00119532,0.00000523,-
 0.00643665,-0.06100687,0.04686135,0.31012806\\0.00000184,-0.00000106,-
 0.00000283,0.00000071,0.00000392,0.00000253,-0.00000008,-0.00000508,-0
 .00000063,-0.00000007,0.00000002,0.00000277,0.00000934,0.00000004,-0.0
 0000838,-0.00001248,-0.00000473,0.00001054,0.00000492,0.00000122,-0.00
 000031,-0.00000682,0.00000124,0.00000349,0.00000067,-0.00000457,-0.000
 00755,0.00000532,-0.00000525,0.00000082,0.00000536,0.00000543,0.000001
 85,-0.00000021,0.00000517,-0.00000062,0.00000062,-0.00000407,0.0000029
 7,0.00000191,0.00000096,-0.00000274,-0.00001239,0.00000471,0.00001056,
 0.00000699,-0.00001452,-0.00000684,0.00000719,0.00001448,-0.00000681,0
 .00000101,0.00000264,0.00000089,-0.00000392,-0.00000403,-0.00000253,-0
 .00000268,0.00000009,-0.00000145,0.00000351,0.00000031,-0.00000072,-0.
 00000236,-0.00000369,0.00000374,0.00000119,0.00000194,-0.00000148,-0.0
 0000296,-0.00000880,0.00000082,-0.00000298,0.00000879,0.00000060,0.000
 00089,-0.00000255,0.00000082,-0.00000387,0.00000410,-0.00000246,0.0000
 0505,-0.00000120,-0.00000058,0.00000554,-0.00000543,0.00000183,0.00000
 487,0.00000169,0.00000084,-0.00000268,-0.00000215,0.00000751,0.0000078
 2,0.00000070,-0.00000892,-0.00000703,0.00001006,0.00000556,0.00000576,
 0.00000030,-0.00000011,0.00000216,-0.00000082,0.00000128,0.00000337,-0
 .00000034,-0.00000083,-0.00000254,-0.00000016,-0.00000168,-0.00000684,
 -0.00000118,0.00000365,0.00000072,0.00000455,-0.00000775,0.00000535,0.
 00000548,0.00000074,0.00000774,-0.00000086,-0.00000878,-0.00000686,-0.
 00000986,0.00000505,0.00000580,-0.00000049,-0.00000017,-0.00000519,-0.
 00000002,0.00000157,0.00001300,-0.00000007,0.00000351,-0.00001516,0.00
 000495,-0.00000539,-0.00000221,0.00000344,0.00000376,0.00000122,-0.000
 00173,-0.00000140,0.00000873,-0.00001517,0.00000397,0.00000858,0.00001
 511,0.00000385,-0.00001518,-0.00000506,-0.00000532,0.00000233,0.000001
 16,0.00000098,-0.00000246,-0.00000022,-0.00000162,0.00000479,-0.000001
 76,0.00000100,-0.00000250,0.00000200,0.00000734,-0.00001432,-0.0000099
 7,-0.00001080,-0.00001423,0.00000989,-0.00001054,-0.00000241,0.0000005
 1,-0.00000165,0.00000585,0.00001644,0.00000989,0.00000582,-0.00001649,
 0.00000996,0.00000203,-0.00000252,0.00000498,0.00000197,0.00000234,0.0
 0000512,-0.00000576,-0.00000901,-0.00000808,-0.00000024,0.00000095,0.0
 0000125,0.00000157,0.00000162,0.00000198,0.00000225,-0.00000183,0.0000
 0168,-0.00000520,0.00000925,-0.00000814,-0.00000043,-0.00000089,0.0000
 0132,0.00000199,0.00000170,0.00000158,0.00000148,-0.00000176,0.0000020
 9,-0.00000258,0.00000037,-0.00000527,0.,0.00000207,0.00000156,0.000000
 03,-0.00000040,-0.00000010,-0.00000279,-0.00000020,-0.00000516,0.00000
 004,0.00000046,-0.00000015,0.00000012,-0.00000210,0.00000154\\\@


 One man practicing sportsmanship is far better than 50 preaching it.
 -- Knute K. Rockne
 Job cpu time:       0 days  0 hours  0 minutes  0.6 seconds.
 Elapsed time:       0 days  0 hours  0 minutes 14.1 seconds.
 File lengths (MBytes):  RWF=     22 Int=      0 D2E=      0 Chk=      3 Scr=      2
 Normal termination of Gaussian 16 at Wed Jun 11 09:13:52 2025.
