 Entering Gaussian System, Link 0=/mlatom/software/Gaussian/g16-avx2/g16
 Input=gaussian.com
 Output=gaussian.log
 Initial command:
 /mlatom/software/Gaussian/g16-avx2/l1.exe "/mlatom/home/qhzhang/git/ts-analysis/calculations/C60/energy_barrier/ub3lypd4/pro/Gau-389429.inp" -scrdir="/mlatom/home/qhzhang/git/ts-analysis/calculations/C60/energy_barrier/ub3lypd4/pro/"
 Entering Link 1 = /mlatom/software/Gaussian/g16-avx2/l1.exe PID=    389430.
  
 Copyright (c) 1988,1990,1992,1993,1995,1998,2003,2009,2016,
            Gaussian, Inc.  All Rights Reserved.
  
 This is part of the Gaussian(R) 16 program.  It is based on
 the Gaussian(R) 09 system (copyright 2009, Gaussian, Inc.),
 the Gaussian(R) 03 system (copyright 2003, Gaussian, Inc.),
 the Gaussian(R) 98 system (copyright 1998, Gaussian, Inc.),
 the Gaussian(R) 94 system (copyright 1995, Gaussian, Inc.),
 the Gaussian 92(TM) system (copyright 1992, Gaussian, Inc.),
 the Gaussian 90(TM) system (copyright 1990, Gaussian, Inc.),
 the Gaussian 88(TM) system (copyright 1988, Gaussian, Inc.),
 the Gaussian 86(TM) system (copyright 1986, Carnegie Mellon
 University), and the Gaussian 82(TM) system (copyright 1983,
 Carnegie Mellon University). Gaussian is a federally registered
 trademark of Gaussian, Inc.
  
 This software contains proprietary and confidential information,
 including trade secrets, belonging to Gaussian, Inc.
  
 This software is provided under written license and may be
 used, copied, transmitted, or stored only in accord with that
 written license.
  
 The following legend is applicable only to US Government
 contracts under FAR:
  
                    RESTRICTED RIGHTS LEGEND
  
 Use, reproduction and disclosure by the US Government is
 subject to restrictions as set forth in subparagraphs (a)
 and (c) of the Commercial Computer Software - Restricted
 Rights clause in FAR 52.227-19.
  
 Gaussian, Inc.
 340 Quinnipiac St., Bldg. 40, Wallingford CT 06492
  
  
 ---------------------------------------------------------------
 Warning -- This program may not be used in any manner that
 competes with the business of Gaussian, Inc. or will provide
 assistance to any competitor of Gaussian, Inc.  The licensee
 of this program is prohibited from giving any competitor of
 Gaussian, Inc. access to this program.  By using this program,
 the user acknowledges that Gaussian, Inc. is engaged in the
 business of creating and licensing software in the field of
 computational chemistry and represents and warrants to the
 licensee that it is not a competitor of Gaussian, Inc. and that
 it will not use this program in any manner prohibited above.
 ---------------------------------------------------------------
  

 Cite this work as:
 Gaussian 16, Revision A.03,
 M. J. Frisch, G. W. Trucks, H. B. Schlegel, G. E. Scuseria, 
 M. A. Robb, J. R. Cheeseman, G. Scalmani, V. Barone, 
 G. A. Petersson, H. Nakatsuji, X. Li, M. Caricato, A. V. Marenich, 
 J. Bloino, B. G. Janesko, R. Gomperts, B. Mennucci, H. P. Hratchian, 
 J. V. Ortiz, A. F. Izmaylov, J. L. Sonnenberg, D. Williams-Young, 
 F. Ding, F. Lipparini, F. Egidi, J. Goings, B. Peng, A. Petrone, 
 T. Henderson, D. Ranasinghe, V. G. Zakrzewski, J. Gao, N. Rega, 
 G. Zheng, W. Liang, M. Hada, M. Ehara, K. Toyota, R. Fukuda, 
 J. Hasegawa, M. Ishida, T. Nakajima, Y. Honda, O. Kitao, H. Nakai, 
 T. Vreven, K. Throssell, J. A. Montgomery, Jr., J. E. Peralta, 
 F. Ogliaro, M. J. Bearpark, J. J. Heyd, E. N. Brothers, K. N. Kudin, 
 V. N. Staroverov, T. A. Keith, R. Kobayashi, J. Normand, 
 K. Raghavachari, A. P. Rendell, J. C. Burant, S. S. Iyengar, 
 J. Tomasi, M. Cossi, J. M. Millam, M. Klene, C. Adamo, R. Cammi, 
 J. W. Ochterski, R. L. Martin, K. Morokuma, O. Farkas, 
 J. B. Foresman, and D. J. Fox, Gaussian, Inc., Wallingford CT, 2016.
 
 ******************************************
 Gaussian 16:  ES64L-G16RevA.03 25-Dec-2016
                 8-Mar-2024 
 ******************************************
 %nproc=1
 Will use up to    1 processors via shared memory.
 ----------------------------------------------------------------------
 #p freq external='/mlatom/software/miniconda3/bin/python /mlatom/softw
 are/mlatom/mlatom/interfaces/gaussian_interface.py model_predict_kwarg
 s'
 ----------------------------------------------------------------------
 1/10=4,18=10,30=1,38=1/1,3;
 2/12=2,17=6,18=5,40=1/2;
 3/11=9,25=1,30=1,41=9900000,43=2,71=2,140=1/1;
 4/20=17,22=2,24=3,113=1,114=1/2;
 6/7=2,8=2,9=2,10=2/1;
 7/8=1,25=1,44=-1/16;
 1/10=4,18=10,30=1/3;
 99//99;
 Leave Link    1 at Fri Mar  8 10:06:50 2024, MaxMem=           0 cpu:               0.0 elap:               0.1
 (Enter /mlatom/software/Gaussian/g16-avx2/l101.exe)
 ------------------------------------
 6ea3865c-18da-4d7d-a460-9d6009e4d96d
 ------------------------------------
 Symbolic Z-matrix:
 Charge =  0 Multiplicity = 1
 C                    -1.93817   2.30625  -2.38393 
 C                    -0.51865   2.30953  -2.67081 
 C                     0.08837   1.17416  -3.21301 
 C                    -0.70961   0.       -3.50275 
 C                    -2.07691   0.       -3.24078 
 C                    -2.70274   1.17481  -2.66259 
 C                    -2.14632   3.03204  -1.14444 
 C                    -0.8529    3.47999  -0.66805 
 C                     0.14853   3.02641  -1.61588 
 C                     1.38532   2.56869  -1.15587 
 C                     1.38221   0.73861  -2.7443 
 C                     0.08837  -1.17416  -3.21301 
 C                    -0.51865  -2.30953  -2.67081 
 C                    -1.93817  -2.30625  -2.38393 
 C                    -2.70274  -1.17481  -2.66259 
 C                    -3.70481  -0.72637  -1.72043 
 C                    -3.70481   0.72637  -1.72043 
 C                    -3.90477   1.42277  -0.52986 
 C                    -3.1096    2.59798  -0.23605 
 C                    -0.57368   3.47974   0.69507 
 C                    -1.5757    3.03217   1.64197 
 C                    -2.8185    2.59803   1.18551 
 C                    -3.43427   1.42278   1.76839 
 C                    -4.10658   0.69651   0.7088 
 C                    -4.10658  -0.69651   0.7088 
 C                    -3.90477  -1.42277  -0.52986 
 C                    -3.1096   -2.59798  -0.23605 
 C                    -2.14632  -3.03204  -1.14444 
 C                     1.38221  -0.73861  -2.7443 
 C                     0.71941  -3.0253    1.17247 
 C                     1.67451  -2.56638   0.26275 
 C                     2.48951  -1.4226    0.55121 
 C                     2.29764  -0.73819   1.72557 
 C                     1.29247  -1.17413   2.6655 
 C                    -0.89685  -2.30605   2.6996 
 C                    -1.5757   -3.03217   1.64197 
 C                    -0.57368  -3.47974   0.69507 
 C                    -0.8529   -3.47999  -0.66805 
 C                     0.14853  -3.02641  -1.61588 
 C                     1.38532  -2.56869  -1.15587 
 C                     2.48951   1.4226    0.55121 
 C                     2.29764   0.73819   1.72557 
 C                     1.29247   1.17413   2.6655 
 C                     0.67282  0.         3.24604 
 C                    -0.68761  0.         3.54251 
 C                    -1.49036  -1.17476   3.25678 
 C                    -2.8185   -2.59803   1.18551 
 C                    -3.43427  -1.42278   1.76839 
 C                    -2.78228  -0.72639   2.78451 
 C                    -2.78228   0.72639   2.78451 
 C                    -1.49036   1.17476   3.25678 
 C                    -0.89685   2.30605   2.6996 
 C                     0.52101   2.30921   2.40522 
 C                     0.71941   3.0253    1.17247 
 C                     1.67451   2.56638   0.26275 
 C                     2.02366  -1.42641  -1.7429 
 C                     2.02366   1.42641  -1.7429 
 C                     0.52101  -2.30921   2.40522 
 C                     3.00571  -0.79942  -0.75009 
 C                     3.00571   0.79942  -0.75009 
 C                     5.44273   0.67179  -0.08374 
 C                     5.44273  -0.67179  -0.08374 
 C                     6.26735   1.57777   0.7844 
 H                     6.85719   2.27593   0.17497 
 H                     5.61483   2.19116   1.42123 
 H                     6.95791   1.03681   1.43531 
 C                     6.26735  -1.57777   0.7844 
 H                     6.85718  -2.27593   0.17497 
 H                     6.95792  -1.03681   1.4353 
 H                     5.61483  -2.19116   1.42124 
 C                     4.45427  -1.32711  -1.01824 
 H                     4.70345  -1.12353  -2.06861 
 H                     4.45148  -2.41536  -0.90333 
 C                     4.45427   1.32711  -1.01824 
 H                     4.45148   2.41536  -0.90333 
 H                     4.70345   1.12353  -2.06861 
 
 ITRead=  0  0  0  0  0  0  0  0  0  0  0  0  0  0  0  0  0  0  0  0
 ITRead=  0  0  0  0  0  0  0  0  0  0  0  0  0  0  0  0  0  0  0  0
 ITRead=  0  0  0  0  0  0  0  0  0  0  0  0  0  0  0  0  0  0  0  0
 ITRead=  0  0  0  0  0  0  0  0  0  0  0  0  0  0  0  0
 MicOpt= -1 -1 -1 -1 -1 -1 -1 -1 -1 -1 -1 -1 -1 -1 -1 -1 -1 -1 -1 -1
 MicOpt= -1 -1 -1 -1 -1 -1 -1 -1 -1 -1 -1 -1 -1 -1 -1 -1 -1 -1 -1 -1
 MicOpt= -1 -1 -1 -1 -1 -1 -1 -1 -1 -1 -1 -1 -1 -1 -1 -1 -1 -1 -1 -1
 MicOpt= -1 -1 -1 -1 -1 -1 -1 -1 -1 -1 -1 -1 -1 -1 -1 -1
 NAtoms=     76 NQM=       76 NQMF=       0 NMMI=      0 NMMIF=      0
                NMic=       0 NMicF=      0.
                    Isotopes and Nuclear Properties:
 (Nuclear quadrupole moments (NQMom) in fm**2, nuclear magnetic moments (NMagM)
  in nuclear magnetons)

  Atom         1           2           3           4           5           6           7           8           9          10
 IAtWgt=          12          12          12          12          12          12          12          12          12          12
 AtmWgt=  12.0000000  12.0000000  12.0000000  12.0000000  12.0000000  12.0000000  12.0000000  12.0000000  12.0000000  12.0000000
 NucSpn=           0           0           0           0           0           0           0           0           0           0
 AtZEff=  -0.0000000  -0.0000000  -0.0000000  -0.0000000  -0.0000000  -0.0000000  -0.0000000  -0.0000000  -0.0000000  -0.0000000
 NQMom=    0.0000000   0.0000000   0.0000000   0.0000000   0.0000000   0.0000000   0.0000000   0.0000000   0.0000000   0.0000000
 NMagM=    0.0000000   0.0000000   0.0000000   0.0000000   0.0000000   0.0000000   0.0000000   0.0000000   0.0000000   0.0000000
 AtZNuc=   6.0000000   6.0000000   6.0000000   6.0000000   6.0000000   6.0000000   6.0000000   6.0000000   6.0000000   6.0000000

  Atom        11          12          13          14          15          16          17          18          19          20
 IAtWgt=          12          12          12          12          12          12          12          12          12          12
 AtmWgt=  12.0000000  12.0000000  12.0000000  12.0000000  12.0000000  12.0000000  12.0000000  12.0000000  12.0000000  12.0000000
 NucSpn=           0           0           0           0           0           0           0           0           0           0
 AtZEff=  -0.0000000  -0.0000000  -0.0000000  -0.0000000  -0.0000000  -0.0000000  -0.0000000  -0.0000000  -0.0000000  -0.0000000
 NQMom=    0.0000000   0.0000000   0.0000000   0.0000000   0.0000000   0.0000000   0.0000000   0.0000000   0.0000000   0.0000000
 NMagM=    0.0000000   0.0000000   0.0000000   0.0000000   0.0000000   0.0000000   0.0000000   0.0000000   0.0000000   0.0000000
 AtZNuc=   6.0000000   6.0000000   6.0000000   6.0000000   6.0000000   6.0000000   6.0000000   6.0000000   6.0000000   6.0000000

  Atom        21          22          23          24          25          26          27          28          29          30
 IAtWgt=          12          12          12          12          12          12          12          12          12          12
 AtmWgt=  12.0000000  12.0000000  12.0000000  12.0000000  12.0000000  12.0000000  12.0000000  12.0000000  12.0000000  12.0000000
 NucSpn=           0           0           0           0           0           0           0           0           0           0
 AtZEff=  -0.0000000  -0.0000000  -0.0000000  -0.0000000  -0.0000000  -0.0000000  -0.0000000  -0.0000000  -0.0000000  -0.0000000
 NQMom=    0.0000000   0.0000000   0.0000000   0.0000000   0.0000000   0.0000000   0.0000000   0.0000000   0.0000000   0.0000000
 NMagM=    0.0000000   0.0000000   0.0000000   0.0000000   0.0000000   0.0000000   0.0000000   0.0000000   0.0000000   0.0000000
 AtZNuc=   6.0000000   6.0000000   6.0000000   6.0000000   6.0000000   6.0000000   6.0000000   6.0000000   6.0000000   6.0000000

  Atom        31          32          33          34          35          36          37          38          39          40
 IAtWgt=          12          12          12          12          12          12          12          12          12          12
 AtmWgt=  12.0000000  12.0000000  12.0000000  12.0000000  12.0000000  12.0000000  12.0000000  12.0000000  12.0000000  12.0000000
 NucSpn=           0           0           0           0           0           0           0           0           0           0
 AtZEff=  -0.0000000  -0.0000000  -0.0000000  -0.0000000  -0.0000000  -0.0000000  -0.0000000  -0.0000000  -0.0000000  -0.0000000
 NQMom=    0.0000000   0.0000000   0.0000000   0.0000000   0.0000000   0.0000000   0.0000000   0.0000000   0.0000000   0.0000000
 NMagM=    0.0000000   0.0000000   0.0000000   0.0000000   0.0000000   0.0000000   0.0000000   0.0000000   0.0000000   0.0000000
 AtZNuc=   6.0000000   6.0000000   6.0000000   6.0000000   6.0000000   6.0000000   6.0000000   6.0000000   6.0000000   6.0000000

  Atom        41          42          43          44          45          46          47          48          49          50
 IAtWgt=          12          12          12          12          12          12          12          12          12          12
 AtmWgt=  12.0000000  12.0000000  12.0000000  12.0000000  12.0000000  12.0000000  12.0000000  12.0000000  12.0000000  12.0000000
 NucSpn=           0           0           0           0           0           0           0           0           0           0
 AtZEff=  -0.0000000  -0.0000000  -0.0000000  -0.0000000  -0.0000000  -0.0000000  -0.0000000  -0.0000000  -0.0000000  -0.0000000
 NQMom=    0.0000000   0.0000000   0.0000000   0.0000000   0.0000000   0.0000000   0.0000000   0.0000000   0.0000000   0.0000000
 NMagM=    0.0000000   0.0000000   0.0000000   0.0000000   0.0000000   0.0000000   0.0000000   0.0000000   0.0000000   0.0000000
 AtZNuc=   6.0000000   6.0000000   6.0000000   6.0000000   6.0000000   6.0000000   6.0000000   6.0000000   6.0000000   6.0000000

  Atom        51          52          53          54          55          56          57          58          59          60
 IAtWgt=          12          12          12          12          12          12          12          12          12          12
 AtmWgt=  12.0000000  12.0000000  12.0000000  12.0000000  12.0000000  12.0000000  12.0000000  12.0000000  12.0000000  12.0000000
 NucSpn=           0           0           0           0           0           0           0           0           0           0
 AtZEff=  -0.0000000  -0.0000000  -0.0000000  -0.0000000  -0.0000000  -0.0000000  -0.0000000  -0.0000000  -0.0000000  -0.0000000
 NQMom=    0.0000000   0.0000000   0.0000000   0.0000000   0.0000000   0.0000000   0.0000000   0.0000000   0.0000000   0.0000000
 NMagM=    0.0000000   0.0000000   0.0000000   0.0000000   0.0000000   0.0000000   0.0000000   0.0000000   0.0000000   0.0000000
 AtZNuc=   6.0000000   6.0000000   6.0000000   6.0000000   6.0000000   6.0000000   6.0000000   6.0000000   6.0000000   6.0000000

  Atom        61          62          63          64          65          66          67          68          69          70
 IAtWgt=          12          12          12           1           1           1          12           1           1           1
 AtmWgt=  12.0000000  12.0000000  12.0000000   1.0078250   1.0078250   1.0078250  12.0000000   1.0078250   1.0078250   1.0078250
 NucSpn=           0           0           0           1           1           1           0           1           1           1
 AtZEff=  -0.0000000  -0.0000000  -0.0000000  -0.0000000  -0.0000000  -0.0000000  -0.0000000  -0.0000000  -0.0000000  -0.0000000
 NQMom=    0.0000000   0.0000000   0.0000000   0.0000000   0.0000000   0.0000000   0.0000000   0.0000000   0.0000000   0.0000000
 NMagM=    0.0000000   0.0000000   0.0000000   2.7928460   2.7928460   2.7928460   0.0000000   2.7928460   2.7928460   2.7928460
 AtZNuc=   6.0000000   6.0000000   6.0000000   1.0000000   1.0000000   1.0000000   6.0000000   1.0000000   1.0000000   1.0000000

  Atom        71          72          73          74          75          76
 IAtWgt=          12           1           1          12           1           1
 AtmWgt=  12.0000000   1.0078250   1.0078250  12.0000000   1.0078250   1.0078250
 NucSpn=           0           1           1           0           1           1
 AtZEff=  -0.0000000  -0.0000000  -0.0000000  -0.0000000  -0.0000000  -0.0000000
 NQMom=    0.0000000   0.0000000   0.0000000   0.0000000   0.0000000   0.0000000
 NMagM=    0.0000000   2.7928460   2.7928460   0.0000000   2.7928460   2.7928460
 AtZNuc=   6.0000000   1.0000000   1.0000000   6.0000000   1.0000000   1.0000000
 Leave Link  101 at Fri Mar  8 10:06:51 2024, MaxMem=   104857600 cpu:               0.2 elap:               0.6
 (Enter /mlatom/software/Gaussian/g16-avx2/l103.exe)

 GradGradGradGradGradGradGradGradGradGradGradGradGradGradGradGradGradGrad
 Berny optimization.
 Initialization pass.
 Trust Radius=3.00D-01 FncErr=1.00D-07 GrdErr=1.00D-07 EigMax=2.50D+02 EigMin=1.00D-04
 Number of steps in this run=      2 maximum allowed number of steps=      2.
 GradGradGradGradGradGradGradGradGradGradGradGradGradGradGradGradGradGrad

 Leave Link  103 at Fri Mar  8 10:06:52 2024, MaxMem=   104857600 cpu:               0.1 elap:               0.1
 (Enter /mlatom/software/Gaussian/g16-avx2/l202.exe)
 Stoichiometry    C66H10
 Framework group  C1[X(C66H10)]
 Deg. of freedom   222
 Full point group                 C1      NOp   1
 Largest Abelian subgroup         C1      NOp   1
 Largest concise Abelian subgroup C1      NOp   1
                         Standard orientation:                         
 ---------------------------------------------------------------------
 Center     Atomic      Atomic             Coordinates (Angstroms)
 Number     Number       Type             X           Y           Z
 ---------------------------------------------------------------------
      1          6           0       -1.938165    2.306253   -2.383928
      2          6           0       -0.518653    2.309527   -2.670806
      3          6           0        0.088366    1.174165   -3.213012
      4          6           0       -0.709612    0.000000   -3.502751
      5          6           0       -2.076907    0.000000   -3.240784
      6          6           0       -2.702743    1.174811   -2.662590
      7          6           0       -2.146321    3.032041   -1.144435
      8          6           0       -0.852901    3.479993   -0.668045
      9          6           0        0.148534    3.026415   -1.615884
     10          6           0        1.385317    2.568695   -1.155870
     11          6           0        1.382207    0.738613   -2.744299
     12          6           0        0.088366   -1.174165   -3.213012
     13          6           0       -0.518653   -2.309527   -2.670806
     14          6           0       -1.938165   -2.306253   -2.383928
     15          6           0       -2.702743   -1.174811   -2.662590
     16          6           0       -3.704806   -0.726371   -1.720433
     17          6           0       -3.704806    0.726371   -1.720433
     18          6           0       -3.904769    1.422766   -0.529863
     19          6           0       -3.109605    2.597981   -0.236046
     20          6           0       -0.573683    3.479741    0.695066
     21          6           0       -1.575704    3.032166    1.641966
     22          6           0       -2.818500    2.598030    1.185514
     23          6           0       -3.434267    1.422779    1.768387
     24          6           0       -4.106576    0.696508    0.708804
     25          6           0       -4.106576   -0.696508    0.708804
     26          6           0       -3.904769   -1.422766   -0.529863
     27          6           0       -3.109605   -2.597981   -0.236046
     28          6           0       -2.146321   -3.032041   -1.144435
     29          6           0        1.382207   -0.738613   -2.744299
     30          6           0        0.719410   -3.025301    1.172466
     31          6           0        1.674506   -2.566378    0.262750
     32          6           0        2.489511   -1.422599    0.551213
     33          6           0        2.297641   -0.738192    1.725575
     34          6           0        1.292474   -1.174134    2.665497
     35          6           0       -0.896853   -2.306050    2.699602
     36          6           0       -1.575705   -3.032166    1.641966
     37          6           0       -0.573683   -3.479741    0.695066
     38          6           0       -0.852901   -3.479993   -0.668045
     39          6           0        0.148534   -3.026415   -1.615884
     40          6           0        1.385317   -2.568695   -1.155870
     41          6           0        2.489511    1.422599    0.551213
     42          6           0        2.297641    0.738192    1.725575
     43          6           0        1.292474    1.174134    2.665497
     44          6           0        0.672815   -0.000000    3.246035
     45          6           0       -0.687610   -0.000000    3.542505
     46          6           0       -1.490356   -1.174759    3.256778
     47          6           0       -2.818500   -2.598030    1.185514
     48          6           0       -3.434267   -1.422779    1.768387
     49          6           0       -2.782276   -0.726389    2.784508
     50          6           0       -2.782276    0.726389    2.784508
     51          6           0       -1.490356    1.174759    3.256778
     52          6           0       -0.896853    2.306050    2.699602
     53          6           0        0.521015    2.309210    2.405223
     54          6           0        0.719410    3.025301    1.172466
     55          6           0        1.674506    2.566378    0.262751
     56          6           0        2.023656   -1.426406   -1.742895
     57          6           0        2.023656    1.426406   -1.742895
     58          6           0        0.521015   -2.309211    2.405223
     59          6           0        3.005714   -0.799419   -0.750095
     60          6           0        3.005714    0.799419   -0.750095
     61          6           0        5.442728    0.671785   -0.083743
     62          6           0        5.442728   -0.671785   -0.083743
     63          6           0        6.267346    1.577772    0.784402
     64          1           0        6.857186    2.275925    0.174974
     65          1           0        5.614834    2.191158    1.421234
     66          1           0        6.957914    1.036811    1.435306
     67          6           0        6.267346   -1.577772    0.784402
     68          1           0        6.857184   -2.275927    0.174974
     69          1           0        6.957916   -1.036811    1.435305
     70          1           0        5.614834   -2.191156    1.421235
     71          6           0        4.454265   -1.327105   -1.018237
     72          1           0        4.703452   -1.123533   -2.068605
     73          1           0        4.451480   -2.415360   -0.903327
     74          6           0        4.454265    1.327105   -1.018237
     75          1           0        4.451480    2.415360   -0.903327
     76          1           0        4.703452    1.123533   -2.068605
 ---------------------------------------------------------------------
 Rotational constants (GHZ):           0.0812332           0.0565988           0.0558736
 Leave Link  202 at Fri Mar  8 10:06:53 2024, MaxMem=   104857600 cpu:               0.0 elap:               0.3
 (Enter /mlatom/software/Gaussian/g16-avx2/l301.exe)
 Standard basis: STO-3G (5D, 7F)
 Ernie: Thresh=  0.10000D-02 Tol=  0.10000D-05 Strict=F.
 There are   340 symmetry adapted cartesian basis functions of A   symmetry.
 There are   340 symmetry adapted basis functions of A   symmetry.
   340 basis functions,  1020 primitive gaussians,   340 cartesian basis functions
   203 alpha electrons      203 beta electrons
       nuclear repulsion energy      9951.2885472254 Hartrees.
 IExCor=    0 DFT=F Ex=HF Corr=None ExCW=0 ScaHFX=  1.000000
 ScaDFX=  1.000000  1.000000  1.000000  1.000000 ScalE2=  1.000000  1.000000
 IRadAn=      5 IRanWt=     -1 IRanGd=            0 ICorTp=0 IEmpDi=  4
 NAtoms=   76 NActive=   76 NUniq=   76 SFac= 1.00D+00 NAtFMM=   60 NAOKFM=T Big=T
 Integral buffers will be    131072 words long.
 Raffenetti 1 integral format.
 Two-electron integral symmetry is turned on.
 Leave Link  301 at Fri Mar  8 10:06:53 2024, MaxMem=   104857600 cpu:               0.1 elap:               0.4
 (Enter /mlatom/software/Gaussian/g16-avx2/l402.exe)
 External calculation of energy, first and second derivatives.
 Running external command "/mlatom/software/miniconda3/bin/python /mlatom/software/mlatom/mlatom/interfaces/gaussian_interface.py model_predict_kwargs R"
         input file       "/mlatom/home/qhzhang/git/ts-analysis/calculations/C60/energy_barrier/ub3lypd4/pro/Gau-389430.EIn"
         output file      "/mlatom/home/qhzhang/git/ts-analysis/calculations/C60/energy_barrier/ub3lypd4/pro/Gau-389430.EOu"
         message file     "/mlatom/home/qhzhang/git/ts-analysis/calculations/C60/energy_barrier/ub3lypd4/pro/Gau-389430.EMs"
         fchk file        "/mlatom/home/qhzhang/git/ts-analysis/calculations/C60/energy_barrier/ub3lypd4/pro/Gau-389430.EFC"
         mat. el file     "/mlatom/home/qhzhang/git/ts-analysis/calculations/C60/energy_barrier/ub3lypd4/pro/Gau-389430.EUF"
 Recovered energy= -2521.21865125     dipole=      3.436300000000      0.000000000000     -0.360200000000
 Energy=    -2521.21865     NIter=   0.
 Dipole moment=       3.436300       0.000000      -0.360200
 Leave Link  402 at Sat Mar  9 01:35:01 2024, MaxMem=   104857600 cpu:               0.1 elap:           55687.1
 (Enter /mlatom/software/Gaussian/g16-avx2/l601.exe)
 Leave Link  601 at Sat Mar  9 01:35:04 2024, MaxMem=   104857600 cpu:               0.1 elap:               1.8
 (Enter /mlatom/software/Gaussian/g16-avx2/l716.exe)
 Dipole        = 3.43630000D+00 0.00000000D+00-3.60200000D-01
 Full mass-weighted force constant matrix:
 Low frequencies ---   -0.1556    0.0751    0.1231    1.1713    1.7192    4.8936
 Low frequencies ---   59.1684   81.0443  109.7068
 Diagonal vibrational polarizability:
        0.0000000       0.0000000       0.0000000
 Harmonic frequencies (cm**-1), IR intensities (KM/Mole), Raman scattering
 activities (A**4/AMU), depolarization ratios for plane and unpolarized
 incident light, reduced masses (AMU), force constants (mDyne/A),
 and normal coordinates:
                      1                      2                      3
                      A                      A                      A
 Frequencies --     59.1679                81.0443               109.7067
 Red. masses --      3.8164                 3.5649                 3.3357
 Frc consts  --      0.0079                 0.0138                 0.0237
 IR Inten    --      0.0000                 0.0000                 0.0000
  Atom  AN      X      Y      Z        X      Y      Z        X      Y      Z
     1   6    -0.01  -0.00   0.00    -0.02  -0.01  -0.01    -0.02  -0.00   0.00
     2   6    -0.02  -0.00  -0.01    -0.02   0.00  -0.01    -0.02   0.01   0.01
     3   6    -0.02  -0.00  -0.02    -0.01   0.01  -0.00    -0.01   0.02   0.00
     4   6    -0.03   0.00  -0.01    -0.00  -0.00   0.00     0.00   0.01  -0.00
     5   6    -0.02   0.00   0.00    -0.00  -0.01   0.00    -0.00  -0.00  -0.00
     6   6    -0.02  -0.00   0.01    -0.01  -0.02  -0.00    -0.01  -0.01   0.00
     7   6    -0.00  -0.00   0.00    -0.02  -0.01  -0.01    -0.03  -0.01   0.00
     8   6     0.00   0.00  -0.01    -0.03   0.00  -0.01    -0.03   0.00   0.00
     9   6    -0.01   0.00  -0.02    -0.02   0.01  -0.01    -0.02   0.01   0.01
    10   6    -0.00   0.00  -0.04    -0.01   0.02  -0.01    -0.01   0.03   0.00
    11   6    -0.02   0.00  -0.03    -0.00   0.02  -0.00    -0.00   0.03   0.00
    12   6    -0.02   0.00  -0.02     0.01   0.01   0.00     0.01   0.02  -0.00
    13   6    -0.02   0.00  -0.01     0.02   0.00   0.01     0.02   0.01  -0.01
    14   6    -0.01   0.00   0.00     0.02  -0.01   0.01     0.02  -0.00  -0.00
    15   6    -0.02   0.00   0.01     0.01  -0.02   0.00     0.01  -0.01  -0.00
    16   6    -0.01   0.00   0.02     0.01  -0.02   0.00     0.01  -0.02  -0.00
    17   6    -0.01  -0.00   0.02    -0.01  -0.02  -0.00    -0.01  -0.02   0.00
    18   6     0.01  -0.00   0.02    -0.01  -0.02  -0.01    -0.01  -0.02   0.00
    19   6     0.01  -0.00   0.01    -0.02  -0.01  -0.01    -0.02  -0.01   0.00
    20   6     0.02   0.00  -0.01    -0.03   0.01  -0.01    -0.03   0.01   0.00
    21   6     0.03   0.00  -0.00    -0.03   0.01  -0.01    -0.03  -0.00   0.00
    22   6     0.02   0.00   0.01    -0.02  -0.00  -0.01    -0.02  -0.01   0.00
    23   6     0.03   0.00   0.02    -0.01  -0.01  -0.01    -0.01  -0.02   0.00
    24   6     0.02  -0.00   0.02    -0.01  -0.02  -0.00    -0.01  -0.02   0.00
    25   6     0.02   0.00   0.02     0.01  -0.02   0.00     0.01  -0.02  -0.00
    26   6     0.01   0.00   0.02     0.01  -0.02   0.01     0.01  -0.02  -0.00
    27   6     0.01   0.00   0.01     0.02  -0.01   0.01     0.02  -0.01  -0.00
    28   6    -0.00   0.00   0.00     0.02  -0.01   0.01     0.03  -0.01  -0.00
    29   6    -0.02  -0.00  -0.03     0.00   0.02   0.00     0.00   0.03  -0.00
    30   6     0.02  -0.00  -0.03     0.03   0.02   0.01     0.02   0.02  -0.00
    31   6     0.01  -0.00  -0.04     0.02   0.03   0.01     0.01   0.03  -0.00
    32   6     0.00   0.00  -0.05     0.02   0.03   0.00    -0.01   0.04  -0.00
    33   6     0.02   0.00  -0.04     0.01   0.04   0.00     0.00   0.04   0.00
    34   6     0.04  -0.00  -0.03     0.01   0.04   0.00     0.01   0.02   0.00
    35   6     0.04  -0.00  -0.01     0.02   0.02   0.01     0.02   0.00  -0.00
    36   6     0.03  -0.00  -0.00     0.03   0.01   0.01     0.03  -0.00  -0.00
    37   6     0.02  -0.00  -0.01     0.03   0.01   0.01     0.03   0.01  -0.00
    38   6     0.00  -0.00  -0.01     0.03   0.00   0.01     0.03   0.00  -0.00
    39   6    -0.01  -0.00  -0.02     0.02   0.01   0.01     0.02   0.01  -0.01
    40   6    -0.00  -0.00  -0.04     0.01   0.02   0.01     0.01   0.03  -0.00
    41   6     0.00  -0.00  -0.05    -0.02   0.03  -0.00     0.01   0.04   0.00
    42   6     0.02  -0.00  -0.04    -0.01   0.04  -0.00    -0.00   0.04  -0.00
    43   6     0.04   0.00  -0.03    -0.01   0.04  -0.00    -0.01   0.02  -0.00
    44   6     0.04  -0.00  -0.02     0.00   0.03  -0.00    -0.00   0.02   0.00
    45   6     0.05  -0.00  -0.01     0.00   0.02   0.00    -0.00   0.01  -0.00
    46   6     0.05  -0.00  -0.00     0.01   0.02   0.00     0.01  -0.00  -0.00
    47   6     0.02  -0.00   0.01     0.02  -0.00   0.01     0.02  -0.01  -0.00
    48   6     0.03  -0.00   0.02     0.01  -0.01   0.01     0.01  -0.02  -0.00
    49   6     0.04  -0.00   0.01     0.01   0.00   0.00     0.01  -0.01  -0.00
    50   6     0.04   0.00   0.01    -0.01   0.00  -0.00    -0.01  -0.01   0.00
    51   6     0.05   0.00  -0.00    -0.01   0.02  -0.00    -0.01  -0.00   0.00
    52   6     0.04   0.00  -0.01    -0.02   0.02  -0.01    -0.02   0.00   0.00
    53   6     0.04   0.00  -0.02    -0.02   0.03  -0.01    -0.02   0.02  -0.00
    54   6     0.02   0.00  -0.03    -0.03   0.02  -0.01    -0.02   0.02   0.00
    55   6     0.01   0.00  -0.04    -0.02   0.03  -0.01    -0.01   0.03   0.00
    56   6    -0.00  -0.00  -0.04    -0.01   0.03   0.01    -0.01   0.04   0.00
    57   6    -0.00   0.00  -0.04     0.01   0.03  -0.01     0.01   0.04  -0.00
    58   6     0.04  -0.00  -0.02     0.02   0.03   0.01     0.02   0.02   0.00
    59   6    -0.00  -0.00  -0.05    -0.00   0.03  -0.01    -0.02   0.04   0.00
    60   6    -0.00   0.00  -0.05     0.00   0.03   0.01     0.02   0.04  -0.00
    61   6    -0.07   0.00   0.08    -0.00  -0.08   0.07     0.05  -0.07  -0.03
    62   6    -0.07  -0.00   0.08     0.00  -0.08  -0.07    -0.05  -0.07   0.03
    63   6    -0.20   0.00   0.21    -0.03  -0.18   0.20     0.21  -0.11  -0.14
    64   1    -0.14   0.04   0.30     0.00  -0.11   0.30     0.23  -0.21  -0.24
    65   1    -0.29  -0.04   0.15    -0.05  -0.25   0.24     0.34   0.01  -0.12
    66   1    -0.26   0.00   0.28    -0.06  -0.26   0.16     0.21  -0.15  -0.18
    67   6    -0.20  -0.00   0.21     0.03  -0.18  -0.20    -0.21  -0.11   0.14
    68   1    -0.14  -0.04   0.30    -0.00  -0.11  -0.30    -0.23  -0.21   0.24
    69   1    -0.26  -0.00   0.28     0.06  -0.26  -0.16    -0.21  -0.15   0.18
    70   1    -0.29   0.04   0.15     0.05  -0.25  -0.24    -0.34   0.01   0.12
    71   6     0.01   0.01  -0.00    -0.03   0.02  -0.09    -0.05  -0.02   0.01
    72   1     0.07   0.04   0.02    -0.06   0.09  -0.09    -0.02  -0.02   0.02
    73   1     0.01   0.01  -0.03    -0.05   0.01  -0.18    -0.10  -0.02  -0.00
    74   6     0.01  -0.01  -0.00     0.03   0.02   0.09     0.05  -0.02  -0.01
    75   1     0.01  -0.01  -0.03     0.05   0.01   0.18     0.10  -0.02   0.00
    76   1     0.07  -0.04   0.02     0.06   0.09   0.09     0.02  -0.02  -0.02
                      4                      5                      6
                      A                      A                      A
 Frequencies --    155.0767               172.9318               174.4755
 Red. masses --      1.0959                 1.1205                 3.3948
 Frc consts  --      0.0155                 0.0197                 0.0609
 IR Inten    --      0.0000                 0.0000                 0.0000
  Atom  AN      X      Y      Z        X      Y      Z        X      Y      Z
     1   6    -0.01  -0.00   0.00    -0.00   0.00   0.00    -0.04  -0.00  -0.00
     2   6    -0.01  -0.00  -0.00    -0.00   0.00   0.00    -0.04  -0.01  -0.01
     3   6    -0.01  -0.00  -0.00    -0.00   0.01   0.00    -0.03  -0.00  -0.01
     4   6    -0.01  -0.00   0.00    -0.00   0.01   0.00    -0.04  -0.00   0.00
     5   6    -0.01  -0.00   0.00    -0.00   0.00   0.00    -0.04  -0.00   0.01
     6   6    -0.01  -0.00   0.00    -0.00   0.00   0.00    -0.04  -0.00   0.01
     7   6    -0.00  -0.00   0.00    -0.01   0.00   0.00    -0.03  -0.00  -0.00
     8   6    -0.00  -0.00  -0.00    -0.01   0.00   0.00    -0.02  -0.01  -0.02
     9   6    -0.00  -0.00  -0.00    -0.00   0.00   0.00    -0.02  -0.01  -0.02
    10   6    -0.00  -0.00  -0.01    -0.00   0.01   0.00    -0.01  -0.00  -0.04
    11   6    -0.00   0.00  -0.00    -0.00   0.01   0.00    -0.02   0.00  -0.03
    12   6    -0.01   0.00  -0.00     0.00   0.01  -0.00    -0.03   0.00  -0.01
    13   6    -0.01   0.00  -0.00     0.00   0.00  -0.00    -0.04   0.01  -0.01
    14   6    -0.01   0.00   0.00     0.00   0.00  -0.00    -0.04   0.00  -0.00
    15   6    -0.01   0.00   0.00     0.00   0.00  -0.00    -0.04   0.00   0.01
    16   6    -0.01   0.00   0.00     0.00  -0.00  -0.00    -0.04  -0.00   0.02
    17   6    -0.01   0.00   0.00    -0.00  -0.00   0.00    -0.04   0.00   0.02
    18   6    -0.00   0.00   0.00    -0.00  -0.00   0.00    -0.03   0.00   0.02
    19   6    -0.00  -0.00   0.00    -0.01  -0.00   0.00    -0.02  -0.00   0.01
    20   6    -0.00  -0.00  -0.00    -0.01   0.00   0.00    -0.01  -0.00  -0.02
    21   6     0.00   0.00  -0.00    -0.01  -0.00   0.00     0.00  -0.00  -0.01
    22   6    -0.00   0.00   0.00    -0.00  -0.00   0.00    -0.01  -0.00   0.01
    23   6     0.00   0.00   0.00    -0.00  -0.00   0.00    -0.00   0.00   0.02
    24   6    -0.00   0.00   0.00    -0.00  -0.00   0.00    -0.01   0.00   0.02
    25   6    -0.00  -0.00   0.00     0.00  -0.00  -0.00    -0.01  -0.00   0.02
    26   6    -0.00  -0.00   0.00     0.00  -0.00  -0.00    -0.03  -0.00   0.02
    27   6    -0.00   0.00   0.00     0.01  -0.00  -0.00    -0.02   0.00   0.01
    28   6    -0.00   0.00   0.00     0.01   0.00  -0.00    -0.03   0.00  -0.00
    29   6    -0.00  -0.00  -0.00     0.00   0.01  -0.00    -0.02  -0.00  -0.03
    30   6    -0.00   0.00  -0.00     0.00   0.00  -0.00    -0.01   0.00  -0.03
    31   6    -0.00   0.00  -0.01    -0.00   0.01  -0.00    -0.01   0.00  -0.04
    32   6    -0.00   0.00  -0.01    -0.01   0.01  -0.00    -0.02   0.01  -0.04
    33   6    -0.00   0.00  -0.01    -0.00   0.01   0.00    -0.00   0.00  -0.04
    34   6     0.00  -0.00  -0.01     0.00   0.01   0.00     0.01  -0.00  -0.03
    35   6     0.00  -0.00  -0.00     0.00   0.00  -0.00     0.01   0.00  -0.02
    36   6     0.00  -0.00  -0.00     0.01  -0.00  -0.00     0.00   0.00  -0.01
    37   6    -0.00   0.00  -0.00     0.01   0.00  -0.00    -0.01   0.00  -0.02
    38   6    -0.00   0.00  -0.00     0.01   0.00  -0.00    -0.02   0.01  -0.02
    39   6    -0.00   0.00  -0.00     0.00   0.00  -0.00    -0.02   0.01  -0.02
    40   6    -0.00   0.00  -0.01     0.00   0.01  -0.00    -0.01   0.00  -0.04
    41   6    -0.00  -0.00  -0.01     0.01   0.01   0.00    -0.02  -0.01  -0.04
    42   6    -0.00  -0.00  -0.01     0.00   0.01  -0.00    -0.00  -0.00  -0.04
    43   6     0.00   0.00  -0.01    -0.00   0.01  -0.00     0.01  -0.00  -0.03
    44   6     0.00  -0.00  -0.00     0.00   0.00  -0.00     0.02  -0.00  -0.03
    45   6     0.00  -0.00  -0.00     0.00   0.00  -0.00     0.02  -0.00  -0.02
    46   6     0.00  -0.00  -0.00     0.00  -0.00  -0.00     0.02  -0.00  -0.01
    47   6    -0.00  -0.00   0.00     0.00  -0.00  -0.00    -0.01   0.00   0.01
    48   6     0.00  -0.00   0.00     0.00  -0.00  -0.00    -0.00  -0.00   0.02
    49   6     0.00  -0.00   0.00     0.00  -0.00  -0.00     0.01  -0.00   0.01
    50   6     0.00   0.00   0.00    -0.00  -0.00   0.00     0.01   0.00   0.01
    51   6     0.00   0.00  -0.00    -0.00  -0.00   0.00     0.02   0.00  -0.01
    52   6     0.00   0.00  -0.00    -0.00   0.00   0.00     0.01  -0.00  -0.02
    53   6     0.00   0.00  -0.00    -0.00   0.00   0.00     0.01  -0.00  -0.03
    54   6    -0.00  -0.00  -0.00    -0.00   0.00   0.00    -0.00  -0.00  -0.03
    55   6    -0.00  -0.00  -0.01     0.00   0.01   0.00    -0.01  -0.00  -0.04
    56   6     0.00  -0.00  -0.01     0.00   0.01  -0.00     0.02  -0.01  -0.05
    57   6     0.00   0.00  -0.01    -0.00   0.01   0.00     0.02   0.01  -0.05
    58   6     0.00  -0.00  -0.00     0.00   0.00  -0.00     0.01   0.00  -0.03
    59   6     0.00  -0.00  -0.00    -0.00   0.00   0.00     0.02  -0.00  -0.02
    60   6     0.00   0.00  -0.00     0.00   0.00  -0.00     0.02   0.00  -0.02
    61   6    -0.01   0.00   0.04    -0.00  -0.02  -0.01     0.03   0.00   0.15
    62   6    -0.01  -0.00   0.04     0.00  -0.02   0.01     0.03   0.00   0.15
    63   6     0.03   0.00  -0.00    -0.04  -0.01   0.01     0.17  -0.02   0.06
    64   1     0.33  -0.29  -0.05     0.26  -0.25   0.02    -0.02   0.07  -0.02
    65   1     0.06   0.31  -0.28    -0.08   0.25  -0.29     0.28  -0.11   0.27
    66   1    -0.23  -0.01   0.26    -0.32  -0.01   0.30     0.35  -0.03  -0.15
    67   6     0.03  -0.00  -0.00     0.04  -0.01  -0.01     0.17   0.02   0.06
    68   1     0.33   0.28  -0.05    -0.26  -0.25  -0.02    -0.01  -0.07  -0.02
    69   1    -0.23   0.01   0.26     0.32  -0.01  -0.30     0.35   0.03  -0.15
    70   1     0.06  -0.31  -0.28     0.08   0.25   0.29     0.28   0.11   0.26
    71   6     0.01   0.00   0.02    -0.01  -0.03   0.03     0.05  -0.02   0.13
    72   1     0.03   0.00   0.02     0.00  -0.08   0.02     0.15  -0.07   0.14
    73   1     0.01   0.00   0.02    -0.03  -0.03   0.08     0.03  -0.01   0.18
    74   6     0.01  -0.00   0.02     0.01  -0.03  -0.03     0.05   0.02   0.13
    75   1     0.01  -0.00   0.02     0.03  -0.03  -0.07     0.03   0.01   0.18
    76   1     0.03  -0.00   0.02    -0.00  -0.08  -0.02     0.15   0.07   0.14
                      7                      8                      9
                      A                      A                      A
 Frequencies --    199.5628               231.4456               251.9250
 Red. masses --      2.4611                 6.5040                11.9242
 Frc consts  --      0.0577                 0.2053                 0.4459
 IR Inten    --      0.0000                 0.0000                 0.0000
  Atom  AN      X      Y      Z        X      Y      Z        X      Y      Z
     1   6     0.02  -0.01  -0.01    -0.02  -0.02   0.04    -0.05   0.12  -0.12
     2   6     0.02  -0.02  -0.01    -0.01  -0.03   0.06    -0.02   0.15  -0.14
     3   6     0.01  -0.02  -0.00     0.01  -0.01   0.08     0.01   0.13  -0.11
     4   6     0.00  -0.02   0.00    -0.00   0.00   0.09     0.00   0.11  -0.00
     5   6     0.00  -0.01   0.00    -0.01   0.00   0.07     0.00   0.09  -0.00
     6   6     0.01  -0.01  -0.00    -0.03  -0.01   0.05    -0.04   0.10  -0.06
     7   6     0.02  -0.00  -0.01    -0.03  -0.02   0.03    -0.04   0.08  -0.09
     8   6     0.02  -0.01  -0.01    -0.02  -0.02   0.01    -0.02   0.06  -0.10
     9   6     0.02  -0.01  -0.01     0.00  -0.02   0.04    -0.00   0.11  -0.12
    10   6     0.01  -0.02  -0.01     0.04   0.01   0.01     0.00   0.07  -0.11
    11   6     0.00  -0.03  -0.00     0.03  -0.00   0.04     0.02   0.11  -0.09
    12   6    -0.01  -0.02   0.00     0.01   0.01   0.08    -0.01   0.13   0.11
    13   6    -0.01  -0.02   0.01    -0.01   0.03   0.06     0.02   0.15   0.14
    14   6    -0.02  -0.01   0.01    -0.02   0.02   0.04     0.05   0.12   0.12
    15   6    -0.01  -0.01   0.00    -0.03   0.01   0.05     0.04   0.10   0.06
    16   6    -0.01   0.00   0.00    -0.07  -0.00   0.02     0.03   0.06   0.03
    17   6     0.01   0.00  -0.00    -0.07   0.00   0.02    -0.03   0.06  -0.03
    18   6     0.01   0.01  -0.00    -0.09   0.01   0.01    -0.03   0.03  -0.03
    19   6     0.02   0.00  -0.01    -0.06   0.00   0.01    -0.03   0.03  -0.06
    20   6     0.02  -0.01  -0.01    -0.02  -0.02  -0.00    -0.02  -0.05  -0.10
    21   6     0.02  -0.00  -0.01    -0.04  -0.02  -0.01    -0.00  -0.08  -0.10
    22   6     0.02   0.01  -0.01    -0.06  -0.00   0.01    -0.01  -0.03  -0.06
    23   6     0.01   0.01  -0.00    -0.09   0.01   0.01     0.01  -0.04  -0.04
    24   6     0.01   0.01  -0.00    -0.11   0.01   0.02    -0.01  -0.00  -0.02
    25   6    -0.01   0.01   0.00    -0.11  -0.01   0.02     0.01  -0.00   0.02
    26   6    -0.01   0.01   0.00    -0.09  -0.01   0.01     0.03   0.03   0.03
    27   6    -0.02   0.00   0.01    -0.06  -0.00   0.01     0.03   0.03   0.06
    28   6    -0.02  -0.00   0.01    -0.03   0.02   0.03     0.04   0.08   0.09
    29   6    -0.00  -0.03   0.00     0.03   0.00   0.04    -0.02   0.11   0.09
    30   6    -0.01  -0.02   0.00    -0.01   0.02  -0.02     0.05  -0.11   0.11
    31   6    -0.00  -0.02   0.00     0.04  -0.01  -0.00     0.05  -0.07   0.10
    32   6     0.03  -0.03  -0.00     0.11  -0.03  -0.01     0.07  -0.08   0.08
    33   6     0.00  -0.03  -0.00     0.03  -0.00  -0.04     0.05  -0.10   0.07
    34   6    -0.00  -0.02  -0.00    -0.02   0.02  -0.07     0.05  -0.12   0.10
    35   6    -0.02  -0.01   0.00    -0.04   0.02  -0.03     0.01  -0.12   0.13
    36   6    -0.02  -0.00   0.01    -0.04   0.02  -0.01     0.00  -0.08   0.10
    37   6    -0.02  -0.01   0.01    -0.02   0.02  -0.00     0.02  -0.05   0.10
    38   6    -0.02  -0.01   0.01    -0.02   0.02   0.01     0.02   0.06   0.10
    39   6    -0.02  -0.01   0.01     0.00   0.02   0.04     0.00   0.11   0.12
    40   6    -0.01  -0.02   0.01     0.04  -0.01   0.01    -0.00   0.07   0.11
    41   6    -0.03  -0.03   0.00     0.11   0.03  -0.01    -0.07  -0.08  -0.08
    42   6    -0.00  -0.03   0.00     0.03   0.00  -0.04    -0.05  -0.10  -0.07
    43   6     0.00  -0.02   0.00    -0.02  -0.02  -0.07    -0.05  -0.12  -0.10
    44   6     0.00  -0.02   0.00    -0.04   0.00  -0.09     0.00  -0.10   0.00
    45   6    -0.00  -0.01   0.00    -0.04   0.00  -0.07     0.00  -0.09   0.00
    46   6    -0.01  -0.00   0.00    -0.05   0.01  -0.04    -0.01  -0.09   0.07
    47   6    -0.02   0.00   0.01    -0.06   0.00   0.01     0.01  -0.03   0.06
    48   6    -0.01   0.01   0.00    -0.09  -0.01   0.01    -0.01  -0.04   0.04
    49   6    -0.01   0.01   0.00    -0.07  -0.00  -0.00    -0.01  -0.06   0.04
    50   6     0.01   0.01  -0.00    -0.07   0.00  -0.00     0.01  -0.06  -0.04
    51   6     0.01  -0.00  -0.00    -0.05  -0.01  -0.04     0.01  -0.09  -0.07
    52   6     0.02  -0.01  -0.00    -0.04  -0.02  -0.04    -0.01  -0.12  -0.13
    53   6     0.01  -0.02  -0.00    -0.03  -0.03  -0.04    -0.04  -0.14  -0.14
    54   6     0.01  -0.02  -0.00    -0.01  -0.02  -0.02    -0.05  -0.11  -0.11
    55   6     0.00  -0.02  -0.00     0.04   0.01  -0.00    -0.05  -0.07  -0.10
    56   6    -0.01  -0.02   0.01     0.08  -0.02  -0.00    -0.04   0.08   0.10
    57   6     0.01  -0.02  -0.01     0.08   0.02  -0.00     0.04   0.08  -0.10
    58   6    -0.01  -0.02   0.00    -0.03   0.03  -0.04     0.04  -0.14   0.14
    59   6     0.01   0.00  -0.01     0.14  -0.03  -0.03     0.01  -0.00   0.04
    60   6    -0.01   0.00   0.01     0.14   0.03  -0.03    -0.01  -0.00  -0.04
    61   6     0.01   0.09   0.04     0.19   0.00  -0.11    -0.00  -0.02  -0.00
    62   6    -0.01   0.09  -0.04     0.19  -0.00  -0.11     0.00  -0.02   0.00
    63   6     0.11   0.02   0.03     0.02  -0.02   0.08    -0.01   0.00  -0.01
    64   1     0.32  -0.17   0.01     0.12   0.04   0.25    -0.02   0.00  -0.02
    65   1     0.19   0.23  -0.09    -0.14  -0.08  -0.01    -0.02  -0.00  -0.02
    66   1    -0.07  -0.06   0.15    -0.10  -0.03   0.19    -0.00   0.02  -0.01
    67   6    -0.11   0.02  -0.03     0.02   0.02   0.08     0.01   0.00   0.01
    68   1    -0.32  -0.17  -0.01     0.12  -0.04   0.25     0.02   0.00   0.02
    69   1     0.07  -0.06  -0.15    -0.10   0.03   0.19     0.00   0.02   0.01
    70   1    -0.19   0.23   0.09    -0.14   0.08  -0.01     0.02  -0.00   0.02
    71   6     0.02   0.13  -0.10     0.17   0.01  -0.11    -0.00  -0.02   0.01
    72   1    -0.02   0.29  -0.08     0.11   0.07  -0.11    -0.02  -0.01   0.01
    73   1     0.11   0.12  -0.24     0.20   0.01  -0.16    -0.01  -0.02   0.01
    74   6    -0.02   0.13   0.10     0.17  -0.01  -0.11     0.00  -0.02  -0.01
    75   1    -0.11   0.12   0.24     0.20  -0.01  -0.16     0.01  -0.02  -0.01
    76   1     0.02   0.29   0.08     0.11  -0.07  -0.11     0.02  -0.01  -0.01
                     10                     11                     12
                      A                      A                      A
 Frequencies --    255.7211               266.9016               269.7010
 Red. masses --     11.6523                10.7036                11.8999
 Frc consts  --      0.4489                 0.4492                 0.5100
 IR Inten    --      0.0000                 0.0000                 0.0000
  Atom  AN      X      Y      Z        X      Y      Z        X      Y      Z
     1   6    -0.02  -0.06  -0.06    -0.08   0.04  -0.00     0.09  -0.02   0.03
     2   6    -0.02  -0.07  -0.07    -0.07  -0.04   0.04     0.08   0.01  -0.06
     3   6     0.01  -0.01  -0.14    -0.03  -0.04   0.04     0.10   0.03  -0.12
     4   6    -0.02  -0.00  -0.17     0.00  -0.03   0.00     0.10   0.00  -0.09
     5   6    -0.05  -0.00  -0.14     0.00   0.03   0.00     0.13   0.00   0.04
     6   6    -0.06  -0.02  -0.10    -0.05   0.04  -0.02     0.14  -0.03   0.08
     7   6     0.00  -0.14  -0.01    -0.11   0.08  -0.00     0.06  -0.04   0.04
     8   6    -0.00  -0.21   0.01    -0.10  -0.00   0.02     0.03  -0.01  -0.01
     9   6    -0.02  -0.17  -0.00    -0.10  -0.08   0.05     0.04   0.03  -0.05
    10   6    -0.03  -0.15   0.01    -0.12  -0.13   0.04     0.04   0.02  -0.08
    11   6     0.03  -0.00  -0.13    -0.03  -0.07   0.02     0.12   0.02  -0.16
    12   6     0.01   0.01  -0.14     0.03  -0.04  -0.04     0.10  -0.03  -0.12
    13   6    -0.02   0.07  -0.07     0.07  -0.04  -0.03     0.08  -0.01  -0.06
    14   6    -0.02   0.06  -0.06     0.08   0.04   0.00     0.09   0.02   0.03
    15   6    -0.06   0.02  -0.10     0.05   0.04   0.02     0.14   0.03   0.08
    16   6    -0.06   0.01  -0.06     0.04   0.07   0.00     0.18   0.02   0.11
    17   6    -0.06  -0.01  -0.06    -0.04   0.07  -0.00     0.18  -0.02   0.11
    18   6    -0.04  -0.04  -0.02    -0.10   0.10  -0.00     0.10  -0.03   0.10
    19   6     0.00  -0.09  -0.01    -0.14   0.13   0.01     0.06  -0.03   0.07
    20   6    -0.00  -0.21  -0.00    -0.10  -0.00   0.02    -0.03  -0.01   0.00
    21   6     0.01  -0.14   0.01    -0.10   0.08   0.05    -0.04   0.02   0.05
    22   6     0.01  -0.09   0.00    -0.14   0.14   0.04    -0.04   0.02   0.09
    23   6    -0.03  -0.04   0.03    -0.09   0.11   0.04    -0.08   0.03   0.13
    24   6    -0.05  -0.01   0.01    -0.06   0.10   0.01     0.00   0.00   0.10
    25   6    -0.05   0.01   0.01     0.06   0.10  -0.01     0.00  -0.00   0.10
    26   6    -0.04   0.04  -0.02     0.10   0.10   0.00     0.10   0.03   0.10
    27   6     0.01   0.09  -0.01     0.14   0.13  -0.01     0.06   0.03   0.07
    28   6     0.00   0.14  -0.01     0.11   0.08   0.00     0.06   0.04   0.04
    29   6     0.03   0.00  -0.13     0.03  -0.07  -0.02     0.12  -0.02  -0.16
    30   6    -0.01   0.16   0.01     0.11  -0.08   0.01    -0.06   0.04  -0.04
    31   6    -0.03   0.15   0.01     0.13  -0.13  -0.01    -0.05   0.02  -0.07
    32   6     0.04   0.07   0.04     0.10  -0.10   0.01    -0.07   0.02  -0.09
    33   6     0.09   0.00   0.11     0.04  -0.07   0.00    -0.15   0.02  -0.10
    34   6     0.07   0.01   0.13     0.05  -0.04   0.02    -0.13   0.03  -0.09
    35   6     0.01   0.06   0.06     0.07   0.05  -0.03    -0.08  -0.00   0.05
    36   6     0.01   0.14   0.01     0.10   0.08  -0.05    -0.04  -0.02   0.05
    37   6    -0.00   0.21  -0.00     0.10  -0.00  -0.02    -0.03   0.01   0.00
    38   6    -0.00   0.21   0.01     0.10  -0.00  -0.02     0.03   0.01  -0.01
    39   6    -0.02   0.17  -0.00     0.10  -0.08  -0.05     0.04  -0.03  -0.05
    40   6    -0.03   0.15   0.01     0.12  -0.13  -0.04     0.04  -0.02  -0.08
    41   6     0.04  -0.07   0.04    -0.10  -0.10  -0.01    -0.07  -0.02  -0.09
    42   6     0.09  -0.00   0.11    -0.04  -0.07  -0.00    -0.15  -0.02  -0.10
    43   6     0.07  -0.01   0.13    -0.05  -0.04  -0.02    -0.13  -0.03  -0.09
    44   6     0.05   0.00   0.16     0.00  -0.02  -0.00    -0.13   0.00  -0.05
    45   6     0.01   0.00   0.14     0.00   0.04  -0.00    -0.10   0.00   0.07
    46   6    -0.01   0.02   0.11     0.04   0.05  -0.04    -0.10  -0.02   0.12
    47   6     0.01   0.09   0.00     0.14   0.14  -0.04    -0.04  -0.02   0.09
    48   6    -0.03   0.04   0.03     0.09   0.11  -0.04    -0.08  -0.03   0.13
    49   6    -0.03   0.01   0.07     0.04   0.08  -0.02    -0.14  -0.02   0.18
    50   6    -0.03  -0.01   0.07    -0.04   0.08   0.02    -0.14   0.02   0.18
    51   6    -0.01  -0.02   0.11    -0.04   0.05   0.04    -0.10   0.02   0.12
    52   6     0.01  -0.06   0.06    -0.07   0.05   0.03    -0.08   0.00   0.05
    53   6     0.01  -0.07   0.07    -0.08  -0.04  -0.00    -0.09  -0.03  -0.04
    54   6    -0.01  -0.16   0.01    -0.11  -0.08  -0.01    -0.06  -0.04  -0.04
    55   6    -0.03  -0.15   0.01    -0.13  -0.13   0.01    -0.05  -0.02  -0.07
    56   6     0.01   0.07  -0.04     0.07  -0.10  -0.04     0.06  -0.03  -0.12
    57   6     0.01  -0.07  -0.04    -0.07  -0.10   0.04     0.06   0.03  -0.12
    58   6     0.01   0.07   0.07     0.08  -0.04   0.00    -0.09   0.03  -0.04
    59   6     0.04   0.03  -0.01     0.05  -0.09  -0.02    -0.00  -0.00  -0.08
    60   6     0.04  -0.03  -0.01    -0.05  -0.09   0.02    -0.00   0.00  -0.08
    61   6     0.05   0.00  -0.03    -0.03  -0.03   0.01    -0.02  -0.00   0.00
    62   6     0.05  -0.00  -0.03     0.03  -0.03  -0.01    -0.02   0.00   0.00
    63   6     0.01  -0.01   0.02    -0.00  -0.02  -0.04    -0.01   0.00  -0.01
    64   1     0.04   0.00   0.07     0.01  -0.07  -0.10    -0.02   0.00  -0.03
    65   1    -0.04  -0.02  -0.00     0.04   0.05  -0.06     0.00   0.00  -0.00
    66   1    -0.03  -0.02   0.06    -0.00  -0.00  -0.03     0.01   0.01  -0.02
    67   6     0.01   0.01   0.02     0.00  -0.02   0.04    -0.01  -0.00  -0.01
    68   1     0.04  -0.00   0.07    -0.01  -0.07   0.10    -0.02  -0.00  -0.03
    69   1    -0.03   0.02   0.06     0.00  -0.00   0.03     0.01  -0.01  -0.02
    70   1    -0.04   0.02  -0.00    -0.04   0.05   0.07     0.00  -0.00  -0.00
    71   6     0.03  -0.00  -0.02     0.07  -0.03  -0.05     0.01  -0.01  -0.01
    72   1     0.02  -0.01  -0.02     0.07   0.04  -0.04     0.04  -0.03  -0.01
    73   1     0.02  -0.00  -0.01     0.11  -0.04  -0.12    -0.00  -0.00   0.00
    74   6     0.03   0.00  -0.02    -0.08  -0.03   0.05     0.01   0.01  -0.01
    75   1     0.02   0.00  -0.01    -0.11  -0.04   0.12    -0.00   0.00   0.00
    76   1     0.02   0.01  -0.02    -0.07   0.04   0.04     0.04   0.03  -0.01
                     13                     14                     15
                      A                      A                      A
 Frequencies --    307.4778               326.7313               333.7687
 Red. masses --      4.9891                 4.0777                 6.6348
 Frc consts  --      0.2779                 0.2565                 0.4355
 IR Inten    --      0.0000                 0.0000                 0.0000
  Atom  AN      X      Y      Z        X      Y      Z        X      Y      Z
     1   6     0.04  -0.04   0.05     0.02  -0.00   0.03    -0.00  -0.03   0.04
     2   6     0.03  -0.02   0.02     0.02   0.00  -0.01     0.00  -0.08   0.07
     3   6     0.05  -0.00  -0.01     0.03   0.01  -0.05    -0.00  -0.07   0.06
     4   6     0.04  -0.00   0.03     0.03  -0.00  -0.02    -0.00  -0.05  -0.00
     5   6     0.05  -0.00   0.09     0.05   0.00   0.07     0.00  -0.02  -0.00
     6   6     0.03  -0.02   0.08     0.05  -0.01   0.07    -0.01  -0.00   0.00
     7   6     0.01  -0.04   0.03    -0.00   0.02   0.02    -0.03   0.00   0.01
     8   6     0.02  -0.03   0.01     0.00   0.01   0.00    -0.01  -0.05   0.01
     9   6     0.03  -0.02   0.01     0.00  -0.01  -0.00     0.00  -0.07   0.04
    10   6     0.03  -0.00  -0.00    -0.02  -0.04   0.01     0.05   0.02  -0.00
    11   6     0.06   0.00  -0.04     0.03   0.00  -0.06     0.00  -0.03   0.03
    12   6     0.05   0.00  -0.01     0.03  -0.01  -0.05     0.00  -0.07  -0.06
    13   6     0.03   0.02   0.02     0.02  -0.00  -0.01    -0.00  -0.08  -0.07
    14   6     0.04   0.04   0.05     0.02   0.00   0.03     0.00  -0.03  -0.04
    15   6     0.03   0.02   0.08     0.05   0.01   0.07     0.01  -0.00  -0.00
    16   6    -0.03   0.00   0.04     0.03   0.00   0.06     0.03   0.05   0.01
    17   6    -0.02  -0.00   0.04     0.03  -0.00   0.06    -0.03   0.05  -0.01
    18   6    -0.09   0.01   0.02    -0.04   0.02   0.02    -0.10   0.08  -0.02
    19   6    -0.03  -0.01   0.01    -0.03   0.04   0.01    -0.09   0.09  -0.01
    20   6     0.02  -0.03  -0.01     0.00   0.01   0.00     0.00  -0.06  -0.02
    21   6     0.00  -0.04  -0.04    -0.01   0.02  -0.01    -0.01  -0.05  -0.03
    22   6    -0.03  -0.01  -0.00    -0.03   0.04   0.00    -0.07   0.06   0.01
    23   6    -0.08   0.01   0.00    -0.04   0.02  -0.01    -0.06   0.05   0.02
    24   6    -0.14   0.01   0.02    -0.07   0.01   0.01    -0.06   0.08   0.00
    25   6    -0.14  -0.01   0.02    -0.07  -0.01   0.01     0.06   0.08  -0.00
    26   6    -0.09  -0.01   0.02    -0.04  -0.02   0.02     0.10   0.08   0.02
    27   6    -0.03   0.01   0.01    -0.03  -0.04   0.01     0.09   0.09   0.01
    28   6     0.01   0.04   0.03    -0.00  -0.02   0.02     0.03   0.00  -0.01
    29   6     0.06  -0.00  -0.04     0.03  -0.00  -0.06    -0.00  -0.03  -0.03
    30   6     0.03   0.01  -0.01     0.00   0.01   0.00    -0.02  -0.04   0.03
    31   6     0.03   0.01  -0.00    -0.02   0.04   0.01    -0.09   0.05  -0.00
    32   6     0.02   0.01   0.00    -0.02   0.03   0.01    -0.13   0.08  -0.02
    33   6     0.07  -0.00   0.02     0.05  -0.00   0.05    -0.03   0.01   0.01
    34   6     0.06  -0.00   0.00     0.05  -0.01   0.04     0.00  -0.05   0.03
    35   6     0.02   0.04  -0.06     0.01   0.00  -0.04     0.01  -0.08   0.08
    36   6     0.00   0.04  -0.04    -0.01  -0.02  -0.01     0.01  -0.05   0.03
    37   6     0.02   0.03  -0.01     0.00  -0.01   0.00    -0.00  -0.06   0.02
    38   6     0.02   0.03   0.01     0.00  -0.01   0.00     0.01  -0.05  -0.01
    39   6     0.03   0.02   0.01     0.00   0.01  -0.00    -0.00  -0.07  -0.04
    40   6     0.03   0.00  -0.00    -0.02   0.04   0.01    -0.05   0.02   0.00
    41   6     0.02  -0.01   0.00    -0.02  -0.03   0.01     0.13   0.08   0.02
    42   6     0.07   0.00   0.02     0.05   0.00   0.05     0.03   0.01  -0.01
    43   6     0.06   0.00   0.00     0.05   0.01   0.04    -0.00  -0.05  -0.03
    44   6     0.03   0.00  -0.03     0.04  -0.00   0.01    -0.00  -0.05  -0.00
    45   6     0.01  -0.00  -0.10     0.02  -0.00  -0.09    -0.00  -0.05   0.00
    46   6     0.00   0.02  -0.09     0.01   0.01  -0.09    -0.00  -0.05   0.05
    47   6    -0.03   0.01  -0.00    -0.03  -0.04   0.00     0.07   0.06  -0.01
    48   6    -0.08  -0.01   0.00    -0.04  -0.02  -0.01     0.06   0.05  -0.02
    49   6    -0.03   0.00  -0.04     0.01   0.00  -0.07     0.01   0.00   0.02
    50   6    -0.03  -0.00  -0.04     0.01  -0.00  -0.07    -0.01   0.00  -0.02
    51   6     0.00  -0.02  -0.09     0.01  -0.01  -0.09     0.00  -0.05  -0.05
    52   6     0.02  -0.04  -0.06     0.01  -0.00  -0.04    -0.01  -0.08  -0.08
    53   6     0.03  -0.02  -0.02     0.02  -0.00   0.00    -0.01  -0.07  -0.07
    54   6     0.03  -0.01  -0.01     0.00  -0.01   0.00     0.02  -0.04  -0.03
    55   6     0.03  -0.01  -0.00    -0.02  -0.04   0.01     0.09   0.05   0.00
    56   6     0.02   0.00  -0.01    -0.02   0.02  -0.01    -0.04   0.02   0.01
    57   6     0.02  -0.00  -0.01    -0.02  -0.02  -0.01     0.04   0.02  -0.01
    58   6     0.03   0.02  -0.02     0.02   0.00   0.00     0.01  -0.07   0.07
    59   6    -0.02   0.01   0.00    -0.04   0.01   0.00    -0.08   0.08   0.02
    60   6    -0.02  -0.01   0.00    -0.04  -0.01   0.00     0.08   0.08  -0.02
    61   6    -0.10   0.00   0.11    -0.04  -0.00  -0.08     0.07   0.10  -0.04
    62   6    -0.10  -0.00   0.11    -0.04   0.00  -0.08    -0.07   0.10   0.04
    63   6    -0.06   0.16  -0.09     0.03  -0.20   0.04     0.06   0.01   0.10
    64   1    -0.22   0.12  -0.29     0.16  -0.20   0.17     0.11   0.09   0.24
    65   1    -0.02   0.20  -0.09     0.09  -0.20   0.10     0.03  -0.08   0.16
    66   1     0.08   0.29  -0.13    -0.07  -0.37   0.01     0.01  -0.10   0.06
    67   6    -0.06  -0.16  -0.09     0.03   0.20   0.04    -0.06   0.01  -0.10
    68   1    -0.22  -0.12  -0.29     0.16   0.20   0.17    -0.11   0.09  -0.24
    69   1     0.08  -0.29  -0.13    -0.07   0.37   0.01    -0.01  -0.10  -0.06
    70   1    -0.02  -0.20  -0.09     0.09   0.20   0.10    -0.03  -0.08  -0.16
    71   6    -0.04   0.04   0.03    -0.06  -0.07   0.01    -0.11   0.04   0.12
    72   1     0.02   0.08   0.06    -0.08  -0.17  -0.02    -0.10  -0.11   0.10
    73   1    -0.04   0.03  -0.01    -0.10  -0.05   0.12    -0.11   0.06   0.27
    74   6    -0.04  -0.04   0.03    -0.06   0.07   0.01     0.11   0.04  -0.12
    75   1    -0.04  -0.03  -0.01    -0.10   0.05   0.12     0.12   0.06  -0.27
    76   1     0.02  -0.08   0.06    -0.08   0.17  -0.02     0.10  -0.11  -0.10
                     16                     17                     18
                      A                      A                      A
 Frequencies --    341.6609               341.8541               347.1878
 Red. masses --      7.7415                11.6893                11.9246
 Frc consts  --      0.5324                 0.8049                 0.8469
 IR Inten    --      0.0000                 0.0000                 0.0000
  Atom  AN      X      Y      Z        X      Y      Z        X      Y      Z
     1   6    -0.03   0.05  -0.01     0.06  -0.13   0.13    -0.03   0.14  -0.07
     2   6    -0.03  -0.01  -0.00     0.03  -0.00   0.02    -0.00   0.14  -0.08
     3   6    -0.00   0.01  -0.06     0.01   0.03  -0.06    -0.03   0.03   0.10
     4   6     0.01  -0.00  -0.05    -0.00  -0.00   0.00     0.01  -0.00   0.18
     5   6     0.03  -0.00   0.02    -0.00  -0.08  -0.00     0.04  -0.00   0.16
     6   6     0.03  -0.00   0.04     0.07  -0.12   0.12     0.05   0.03   0.08
     7   6    -0.06   0.12  -0.02     0.07  -0.13   0.10    -0.05   0.17  -0.09
     8   6    -0.05   0.04  -0.00     0.04  -0.03   0.03    -0.02   0.13  -0.10
     9   6    -0.06  -0.07   0.03     0.05   0.07  -0.03     0.03   0.17  -0.10
    10   6    -0.08  -0.13   0.02     0.09   0.11  -0.10     0.01   0.07  -0.05
    11   6     0.02   0.00  -0.09     0.04   0.08  -0.09    -0.06  -0.00   0.09
    12   6    -0.00  -0.01  -0.06    -0.01   0.03   0.06    -0.03  -0.03   0.10
    13   6    -0.03   0.01  -0.00    -0.02  -0.00  -0.02    -0.00  -0.14  -0.08
    14   6    -0.04  -0.05  -0.01    -0.06  -0.13  -0.13    -0.03  -0.14  -0.07
    15   6     0.03  -0.00   0.03    -0.08  -0.12  -0.12     0.05  -0.03   0.08
    16   6     0.08   0.00   0.07    -0.06  -0.08  -0.08     0.08  -0.01   0.06
    17   6     0.09  -0.00   0.07     0.06  -0.08   0.07     0.08   0.01   0.06
    18   6     0.05   0.04   0.02     0.06  -0.04   0.07     0.02   0.03   0.01
    19   6    -0.06   0.15   0.01     0.03  -0.04   0.09    -0.02   0.05  -0.05
    20   6    -0.04   0.05   0.01    -0.02   0.00   0.03    -0.02  -0.13  -0.10
    21   6    -0.05   0.13   0.05    -0.04   0.10   0.09     0.02  -0.16  -0.10
    22   6    -0.06   0.15   0.03    -0.07   0.09   0.12    -0.00  -0.05  -0.05
    23   6     0.04   0.05  -0.02    -0.10   0.09   0.12    -0.01  -0.03   0.01
    24   6     0.11   0.01  -0.01    -0.02   0.03   0.06     0.00   0.00   0.02
    25   6     0.11  -0.01  -0.01     0.02   0.03  -0.06     0.00  -0.00   0.02
    26   6     0.05  -0.05   0.02    -0.07  -0.04  -0.07     0.02  -0.03   0.01
    27   6    -0.07  -0.15   0.00    -0.03  -0.03  -0.09    -0.02  -0.05  -0.05
    28   6    -0.07  -0.12  -0.03    -0.06  -0.12  -0.10    -0.05  -0.16  -0.09
    29   6     0.02  -0.00  -0.09    -0.04   0.08   0.09    -0.06   0.00   0.09
    30   6    -0.06   0.06  -0.02     0.04  -0.09   0.05    -0.07   0.17  -0.08
    31   6    -0.09   0.13   0.01     0.03  -0.05   0.07    -0.03   0.07  -0.04
    32   6     0.01   0.04   0.02     0.07  -0.06   0.09     0.00   0.04   0.01
    33   6     0.05  -0.01   0.07     0.06  -0.08   0.09     0.09  -0.00   0.07
    34   6     0.02  -0.02   0.04     0.06  -0.08   0.11     0.07   0.03   0.09
    35   6    -0.03  -0.05   0.01     0.02   0.07  -0.06    -0.00   0.14  -0.08
    36   6    -0.05  -0.13   0.04     0.05   0.11  -0.09     0.02   0.16  -0.10
    37   6    -0.04  -0.05   0.01     0.02   0.01  -0.03    -0.02   0.13  -0.10
    38   6    -0.05  -0.04  -0.00    -0.03  -0.02  -0.03    -0.02  -0.13  -0.10
    39   6    -0.06   0.07   0.03    -0.04   0.06   0.03     0.03  -0.17  -0.10
    40   6    -0.09   0.14   0.03    -0.08   0.10   0.10     0.01  -0.07  -0.05
    41   6     0.01  -0.04   0.02    -0.07  -0.06  -0.09     0.00  -0.04   0.01
    42   6     0.05   0.00   0.07    -0.07  -0.08  -0.09     0.09   0.00   0.07
    43   6     0.01   0.01   0.04    -0.06  -0.08  -0.11     0.07  -0.03   0.08
    44   6     0.02  -0.00   0.03    -0.00  -0.04  -0.00     0.07  -0.00   0.17
    45   6     0.02   0.00  -0.04    -0.00   0.05   0.00     0.02  -0.00   0.16
    46   6     0.02  -0.00  -0.05     0.02   0.08  -0.09    -0.02   0.04   0.09
    47   6    -0.06  -0.15   0.02     0.08   0.10  -0.12    -0.00   0.05  -0.05
    48   6     0.04  -0.05  -0.03     0.10   0.10  -0.12    -0.01   0.03   0.01
    49   6     0.05   0.00  -0.08     0.04   0.09  -0.08    -0.05   0.01   0.08
    50   6     0.05   0.00  -0.08    -0.04   0.09   0.09    -0.05  -0.01   0.08
    51   6     0.02   0.01  -0.05    -0.02   0.08   0.10    -0.02  -0.04   0.09
    52   6    -0.03   0.06   0.02    -0.02   0.07   0.06    -0.00  -0.14  -0.08
    53   6    -0.03  -0.01   0.00    -0.04  -0.07  -0.07    -0.03  -0.14  -0.07
    54   6    -0.07  -0.06  -0.02    -0.04  -0.09  -0.05    -0.07  -0.17  -0.08
    55   6    -0.09  -0.13   0.00    -0.03  -0.04  -0.07    -0.03  -0.07  -0.04
    56   6    -0.00   0.05  -0.02    -0.10   0.11   0.15     0.00  -0.03   0.01
    57   6     0.00  -0.05  -0.02     0.10   0.12  -0.15     0.00   0.03   0.01
    58   6    -0.03   0.01   0.00     0.04  -0.07   0.07    -0.03   0.14  -0.07
    59   6     0.04   0.01   0.01    -0.03   0.03   0.06     0.00   0.00   0.01
    60   6     0.04  -0.01   0.00     0.02   0.03  -0.06     0.00  -0.00   0.01
    61   6     0.11   0.01   0.02     0.01  -0.00  -0.01     0.01   0.00  -0.01
    62   6     0.11  -0.01   0.02    -0.02  -0.00   0.01     0.01  -0.00  -0.01
    63   6    -0.01   0.16  -0.00    -0.01   0.01   0.00    -0.01   0.01  -0.00
    64   1    -0.07   0.19  -0.03    -0.02   0.03   0.01    -0.01   0.02  -0.00
    65   1    -0.12   0.12  -0.08    -0.03  -0.00  -0.01    -0.02   0.01  -0.02
    66   1     0.03   0.28   0.07    -0.00   0.04   0.01    -0.01   0.03   0.01
    67   6    -0.01  -0.16  -0.00     0.01   0.02  -0.00    -0.01  -0.01  -0.00
    68   1    -0.07  -0.18  -0.03     0.03   0.04  -0.00    -0.01  -0.02   0.00
    69   1     0.03  -0.28   0.07    -0.00   0.05  -0.02    -0.01  -0.03   0.01
    70   1    -0.12  -0.12  -0.08     0.04   0.00   0.01    -0.02  -0.01  -0.02
    71   6     0.08   0.05  -0.01    -0.05  -0.00   0.02    -0.00  -0.00   0.01
    72   1     0.06   0.11   0.00    -0.07  -0.01   0.01    -0.01  -0.02   0.00
    73   1     0.10   0.04  -0.08    -0.06   0.00   0.03    -0.00  -0.00   0.02
    74   6     0.08  -0.05  -0.01     0.04   0.00  -0.02    -0.00   0.00   0.01
    75   1     0.10  -0.04  -0.08     0.05   0.00  -0.03    -0.00   0.00   0.03
    76   1     0.06  -0.11   0.00     0.06  -0.01  -0.01    -0.01   0.02   0.00
                     19                     20                     21
                      A                      A                      A
 Frequencies --    352.2018               363.9558               378.6933
 Red. masses --     11.1970                11.0486                 3.7217
 Frc consts  --      0.8183                 0.8623                 0.3145
 IR Inten    --      0.0000                 0.0000                 0.0000
  Atom  AN      X      Y      Z        X      Y      Z        X      Y      Z
     1   6     0.04  -0.05   0.13     0.02  -0.04   0.07    -0.03   0.03  -0.03
     2   6     0.01  -0.06   0.16     0.02  -0.04   0.06    -0.03   0.01  -0.02
     3   6    -0.04  -0.08   0.16     0.07  -0.01   0.05    -0.02  -0.01   0.00
     4   6     0.00  -0.05   0.00     0.05   0.00   0.20     0.00  -0.01  -0.00
     5   6     0.00  -0.04   0.00     0.06   0.00   0.22    -0.00   0.00   0.00
     6   6     0.07  -0.06   0.10    -0.01  -0.02   0.10    -0.00   0.01  -0.01
     7   6    -0.01   0.11   0.03    -0.00   0.02   0.01    -0.01   0.05  -0.02
     8   6    -0.01   0.25  -0.01     0.01   0.01   0.03    -0.02   0.05  -0.00
     9   6     0.02   0.10   0.04     0.01   0.01   0.02    -0.04   0.01  -0.00
    10   6     0.01   0.04   0.01     0.03   0.03  -0.06    -0.07  -0.05   0.01
    11   6    -0.04  -0.07   0.09     0.15   0.02  -0.13    -0.02  -0.02   0.00
    12   6     0.04  -0.08  -0.16     0.07   0.01   0.06     0.02  -0.01  -0.00
    13   6    -0.01  -0.06  -0.16     0.02   0.04   0.06     0.03   0.01   0.02
    14   6    -0.04  -0.05  -0.13     0.02   0.04   0.07     0.03   0.03   0.03
    15   6    -0.07  -0.06  -0.10    -0.01   0.02   0.10     0.00   0.01   0.01
    16   6    -0.05  -0.06  -0.03    -0.18  -0.02  -0.05    -0.02  -0.02  -0.00
    17   6     0.05  -0.06   0.03    -0.18   0.02  -0.05     0.02  -0.02   0.00
    18   6     0.05  -0.02  -0.00    -0.14   0.07  -0.07     0.08  -0.03   0.01
    19   6    -0.01   0.03  -0.00    -0.06   0.05  -0.04     0.06  -0.02   0.01
    20   6    -0.00   0.24   0.00     0.00  -0.02   0.03    -0.01   0.05   0.01
    21   6    -0.01   0.09  -0.04    -0.00  -0.01   0.02     0.01   0.06   0.04
    22   6     0.00   0.02  -0.02     0.03  -0.03  -0.06     0.05  -0.01   0.01
    23   6     0.06  -0.03  -0.04     0.12  -0.06  -0.12     0.06  -0.02  -0.01
    24   6     0.04  -0.02  -0.02     0.00  -0.00  -0.08     0.06  -0.03  -0.00
    25   6    -0.04  -0.02   0.01     0.00   0.00  -0.08    -0.06  -0.03   0.00
    26   6    -0.05  -0.02   0.00    -0.14  -0.06  -0.07    -0.08  -0.04  -0.01
    27   6     0.01   0.03   0.00    -0.06  -0.05  -0.04    -0.06  -0.02  -0.01
    28   6     0.01   0.11  -0.03    -0.00  -0.02   0.01     0.01   0.05   0.02
    29   6     0.04  -0.07  -0.09     0.15  -0.02  -0.13     0.02  -0.02  -0.00
    30   6    -0.00   0.11   0.03    -0.01   0.03   0.01     0.02  -0.01   0.00
    31   6    -0.01   0.06  -0.00    -0.06   0.04  -0.04     0.05  -0.05   0.01
    32   6     0.05  -0.02   0.01    -0.12   0.06  -0.07     0.00  -0.02   0.02
    33   6     0.06  -0.06   0.05    -0.19   0.02  -0.06     0.02  -0.03   0.03
    34   6     0.09  -0.07   0.11    -0.05  -0.00   0.06     0.02  -0.02   0.03
    35   6     0.02  -0.06   0.16    -0.00  -0.04   0.08    -0.01   0.04  -0.05
    36   6     0.01   0.09   0.04    -0.00   0.01   0.02    -0.01   0.06  -0.04
    37   6     0.00   0.24  -0.00     0.00   0.01   0.03     0.01   0.05  -0.01
    38   6     0.01   0.25   0.01     0.01  -0.02   0.03     0.02   0.05   0.00
    39   6    -0.02   0.10  -0.04     0.01  -0.01   0.02     0.04   0.01   0.00
    40   6    -0.01   0.04  -0.01     0.03  -0.03  -0.06     0.07  -0.05  -0.01
    41   6    -0.05  -0.02  -0.01    -0.12  -0.06  -0.07    -0.00  -0.02  -0.02
    42   6    -0.06  -0.06  -0.05    -0.19  -0.02  -0.06    -0.02  -0.03  -0.03
    43   6    -0.09  -0.07  -0.11    -0.05   0.00   0.06    -0.02  -0.02  -0.03
    44   6    -0.00  -0.05   0.00     0.02   0.00   0.19     0.00  -0.01   0.00
    45   6    -0.00  -0.05   0.00     0.03   0.00   0.24     0.00   0.01   0.00
    46   6    -0.03  -0.08   0.14     0.04  -0.02   0.10    -0.01   0.02  -0.03
    47   6    -0.00   0.02   0.02     0.03   0.03  -0.06    -0.05  -0.01  -0.01
    48   6    -0.06  -0.03   0.04     0.12   0.06  -0.12    -0.06  -0.02   0.01
    49   6    -0.04  -0.07   0.06     0.15   0.02  -0.11    -0.02  -0.00  -0.01
    50   6     0.04  -0.07  -0.06     0.15  -0.02  -0.11     0.02  -0.00   0.01
    51   6     0.03  -0.08  -0.14     0.04   0.02   0.10     0.01   0.02   0.03
    52   6    -0.02  -0.06  -0.16    -0.00   0.04   0.08     0.01   0.04   0.05
    53   6    -0.05  -0.05  -0.14    -0.00   0.03   0.06    -0.01  -0.00   0.01
    54   6     0.00   0.12  -0.03    -0.01  -0.03   0.01    -0.02  -0.01  -0.00
    55   6     0.01   0.06  -0.00    -0.05  -0.04  -0.04    -0.05  -0.05  -0.01
    56   6     0.04  -0.03  -0.05     0.09  -0.05  -0.11     0.04  -0.03  -0.00
    57   6    -0.04  -0.03   0.05     0.09   0.05  -0.11    -0.04  -0.03   0.00
    58   6     0.05  -0.05   0.14    -0.00  -0.03   0.06     0.01  -0.00  -0.01
    59   6     0.02  -0.01  -0.02     0.00  -0.00  -0.06    -0.01   0.00   0.03
    60   6    -0.02  -0.01   0.02     0.00   0.00  -0.06     0.01   0.00  -0.03
    61   6    -0.03  -0.04   0.01     0.02  -0.00  -0.05     0.04   0.12  -0.04
    62   6     0.03  -0.04  -0.01     0.02   0.00  -0.05    -0.04   0.12   0.04
    63   6    -0.03  -0.01  -0.04    -0.03   0.01  -0.02     0.08  -0.02   0.09
    64   1    -0.05  -0.03  -0.09    -0.02   0.03   0.01     0.17   0.03   0.25
    65   1    -0.02   0.02  -0.06    -0.08  -0.01  -0.05     0.11  -0.09   0.19
    66   1    -0.00   0.04  -0.02    -0.04   0.03   0.02    -0.01  -0.22   0.02
    67   6     0.03  -0.01   0.04    -0.03  -0.01  -0.02    -0.08  -0.02  -0.09
    68   1     0.05  -0.03   0.09    -0.01  -0.03   0.01    -0.17   0.03  -0.25
    69   1     0.00   0.04   0.02    -0.04  -0.03   0.02     0.01  -0.22  -0.02
    70   1     0.02   0.02   0.06    -0.08   0.01  -0.05    -0.11  -0.09  -0.19
    71   6     0.04  -0.01  -0.05     0.00  -0.04   0.01    -0.02  -0.00   0.14
    72   1     0.04   0.04  -0.03     0.01  -0.14  -0.01     0.01  -0.21   0.11
    73   1     0.03  -0.02  -0.10    -0.02  -0.03   0.10    -0.01   0.02   0.35
    74   6    -0.04  -0.01   0.05     0.00   0.04   0.01     0.02  -0.00  -0.14
    75   1    -0.03  -0.02   0.10    -0.02   0.03   0.10     0.01   0.02  -0.35
    76   1    -0.04   0.04   0.03     0.01   0.14  -0.01    -0.01  -0.21  -0.11
                     22                     23                     24
                      A                      A                      A
 Frequencies --    390.5353               399.2566               402.1183
 Red. masses --      4.9507                11.5977                10.7740
 Frc consts  --      0.4449                 1.0892                 1.0264
 IR Inten    --      0.0000                 0.0000                 0.0000
  Atom  AN      X      Y      Z        X      Y      Z        X      Y      Z
     1   6    -0.00  -0.01  -0.03    -0.18  -0.02   0.07     0.01  -0.01  -0.08
     2   6    -0.00   0.02  -0.09    -0.19  -0.04   0.07     0.03   0.03  -0.05
     3   6    -0.01   0.00  -0.06    -0.10   0.04   0.01     0.12   0.03  -0.03
     4   6    -0.03   0.00  -0.04     0.00  -0.00  -0.00     0.17  -0.00  -0.07
     5   6    -0.03  -0.00   0.03     0.00  -0.01   0.00     0.16  -0.00  -0.07
     6   6    -0.02  -0.01   0.04    -0.12  -0.04   0.01     0.10  -0.04  -0.05
     7   6     0.02  -0.04  -0.02    -0.13   0.01   0.07    -0.12  -0.07  -0.04
     8   6     0.03  -0.00  -0.07    -0.08  -0.04   0.05    -0.17  -0.04   0.00
     9   6     0.02   0.02  -0.09    -0.15  -0.08   0.04    -0.10   0.04   0.01
    10   6     0.00   0.00  -0.03    -0.06   0.01  -0.04    -0.08   0.09   0.02
    11   6    -0.02  -0.01   0.01    -0.04   0.11  -0.05     0.09   0.02   0.06
    12   6    -0.01  -0.00  -0.06     0.10   0.04  -0.01     0.12  -0.03  -0.03
    13   6    -0.00  -0.02  -0.09     0.19  -0.04  -0.07     0.03  -0.03  -0.05
    14   6    -0.01   0.01  -0.03     0.18  -0.02  -0.07     0.01   0.01  -0.08
    15   6    -0.02   0.01   0.04     0.12  -0.04  -0.01     0.10   0.04  -0.05
    16   6    -0.02   0.01   0.06     0.08  -0.07  -0.02     0.11   0.02  -0.01
    17   6    -0.02  -0.01   0.06    -0.08  -0.07   0.03     0.11  -0.02  -0.01
    18   6    -0.03  -0.01   0.06    -0.08  -0.03   0.03    -0.06  -0.06   0.00
    19   6     0.03  -0.05   0.00    -0.09  -0.00   0.07    -0.10  -0.07  -0.00
    20   6     0.03   0.04  -0.06     0.10   0.04   0.01    -0.17  -0.02   0.00
    21   6     0.03   0.01  -0.06     0.14  -0.02   0.00    -0.09  -0.05   0.04
    22   6     0.03  -0.02  -0.02     0.09  -0.00   0.03    -0.08  -0.06   0.02
    23   6    -0.01   0.02   0.03     0.07   0.03   0.00    -0.01  -0.06   0.04
    24   6    -0.07   0.01   0.08    -0.00  -0.00   0.03    -0.10  -0.01   0.05
    25   6    -0.07  -0.01   0.08     0.00  -0.00  -0.03    -0.10   0.01   0.05
    26   6    -0.03   0.01   0.06     0.08  -0.03  -0.03    -0.06   0.06   0.00
    27   6     0.03   0.05   0.00     0.09  -0.00  -0.07    -0.10   0.07  -0.00
    28   6     0.02   0.04  -0.02     0.13   0.01  -0.07    -0.12   0.07  -0.04
    29   6    -0.02   0.01   0.01     0.04   0.11   0.05     0.09  -0.02   0.06
    30   6     0.03  -0.07  -0.01    -0.16   0.08   0.02    -0.11  -0.08  -0.01
    31   6    -0.01  -0.03  -0.01    -0.06  -0.01   0.06    -0.08  -0.12   0.01
    32   6    -0.06   0.00   0.04     0.02  -0.09   0.08    -0.03  -0.11  -0.01
    33   6    -0.07  -0.00   0.05    -0.02  -0.10   0.06     0.01  -0.02  -0.07
    34   6    -0.03  -0.03   0.05    -0.10  -0.02   0.03     0.08  -0.04  -0.03
    35   6     0.02  -0.03  -0.04    -0.20   0.01   0.03     0.04  -0.01   0.04
    36   6     0.03  -0.01  -0.06    -0.14  -0.02  -0.00    -0.09   0.05   0.04
    37   6     0.03  -0.04  -0.06    -0.10   0.03  -0.01    -0.17   0.02   0.00
    38   6     0.03   0.00  -0.07     0.08  -0.04  -0.05    -0.17   0.04   0.00
    39   6     0.02  -0.02  -0.09     0.15  -0.08  -0.04    -0.10  -0.04   0.01
    40   6     0.00  -0.00  -0.03     0.06   0.01   0.04    -0.08  -0.09   0.02
    41   6    -0.06  -0.00   0.04    -0.02  -0.08  -0.08    -0.03   0.11  -0.01
    42   6    -0.07   0.00   0.05     0.02  -0.10  -0.06     0.01   0.02  -0.07
    43   6    -0.03   0.03   0.05     0.10  -0.02  -0.03     0.08   0.04  -0.03
    44   6    -0.02  -0.00   0.05     0.00   0.02   0.00     0.17  -0.00   0.02
    45   6    -0.01  -0.00  -0.02     0.00   0.02   0.00     0.18  -0.00   0.06
    46   6     0.02  -0.02  -0.04    -0.11   0.04   0.05     0.15   0.02   0.03
    47   6     0.04   0.02  -0.02    -0.09  -0.00  -0.03    -0.08   0.06   0.02
    48   6    -0.01  -0.02   0.03    -0.07   0.03  -0.00    -0.01   0.06   0.04
    49   6     0.03  -0.00  -0.01    -0.07   0.07   0.01     0.16   0.02  -0.01
    50   6     0.03   0.00  -0.01     0.07   0.07  -0.01     0.16  -0.02  -0.01
    51   6     0.02   0.02  -0.04     0.11   0.04  -0.05     0.15  -0.02   0.03
    52   6     0.02   0.03  -0.04     0.20   0.01  -0.03     0.04   0.01   0.04
    53   6     0.02   0.07   0.01     0.20   0.05  -0.02     0.03   0.05  -0.00
    54   6     0.03   0.07  -0.01     0.16   0.09  -0.02    -0.11   0.08  -0.01
    55   6    -0.01   0.03  -0.01     0.05  -0.01  -0.06    -0.08   0.12   0.01
    56   6    -0.01   0.03   0.03     0.01   0.08   0.08    -0.01  -0.08   0.06
    57   6    -0.01  -0.03   0.03    -0.01   0.08  -0.08    -0.01   0.08   0.06
    58   6     0.02  -0.07   0.01    -0.20   0.05   0.02     0.03  -0.05  -0.00
    59   6    -0.01   0.01   0.09     0.01  -0.01   0.06    -0.03  -0.05   0.05
    60   6    -0.01  -0.01   0.09    -0.01  -0.01  -0.06    -0.03   0.05   0.05
    61   6     0.17   0.00  -0.10    -0.01  -0.02   0.01     0.04   0.00  -0.01
    62   6     0.17  -0.01  -0.10     0.01  -0.02  -0.01     0.04  -0.00  -0.01
    63   6    -0.02   0.09   0.01    -0.01  -0.00  -0.01     0.02   0.01   0.02
    64   1     0.01   0.17   0.13    -0.02  -0.02  -0.04     0.03   0.02   0.05
    65   1    -0.23   0.01  -0.13    -0.01   0.01  -0.02    -0.00  -0.01   0.01
    66   1    -0.08   0.18   0.15    -0.00   0.02  -0.01     0.01   0.00   0.03
    67   6    -0.02  -0.09   0.01     0.01  -0.00   0.01     0.02  -0.01   0.02
    68   1     0.01  -0.17   0.13     0.02  -0.02   0.04     0.03  -0.02   0.05
    69   1    -0.08  -0.18   0.15     0.00   0.02   0.01     0.01  -0.00   0.03
    70   1    -0.23  -0.01  -0.13     0.01   0.01   0.03    -0.00   0.01   0.01
    71   6     0.00  -0.05   0.09     0.01   0.01  -0.02     0.01   0.05  -0.01
    72   1    -0.09  -0.24   0.04    -0.03   0.08  -0.01    -0.04   0.16  -0.00
    73   1    -0.04  -0.03   0.27     0.02   0.00  -0.09     0.07   0.03  -0.13
    74   6     0.00   0.05   0.09    -0.01   0.01   0.02     0.01  -0.05  -0.01
[...]
 0000152,0.00004290,0.00006114,-0.00010455,0.00015723,-0.00006728,0.000
 12044,-0.00037988,-0.00045350,0.00027150,0.00021413,0.00021977,-0.0001
 6371,-0.00084236,-0.00052745,-0.00018247,0.00020959,-0.00027538,-0.001
 12657,-0.00133735,0.00002010,-0.00067839,0.00003745,-0.02000185,-0.007
 97724,0.00529812,-0.00003483,0.00015582,0.00015989,0.00113388,-0.00094
 894,0.00107356,0.01953297,0.00640215,-0.06822737,-0.05273456,0.0265485
 6,-0.12528665,-0.00105557,0.01317638,0.00270993,-0.01502664,0.00744548
 ,-0.01254649,0.00006483,-0.00012840,0.00077209,0.00026390,0.00141011,0
 .00114995,-0.00235024,-0.00221036,0.00006661,-0.00555257,-0.00137649,0
 .00621060,-0.00068117,0.00091697,-0.00105359,0.00006280,-0.00005404,0.
 00004368,0.00110697,-0.00111089,0.00095997,-0.00036376,-0.00165747,-0.
 00578752,-0.00099142,-0.00364920,0.00045871,0.00002210,-0.00027818,-0.
 00074221,-0.00325497,0.03217151,0.54092556,-0.00008135,0.00004587,0.00
 003123,0.00009742,0.00004915,0.00011868,0.00011316,-0.00008129,0.00007
 044,-0.00013974,-0.00005332,-0.00002141,0.00008258,-0.00006708,-0.0000
 2669,0.00001638,0.00006547,0.00007034,-0.00000948,-0.00000093,-0.00005
 235,-0.00001023,-0.00004110,-0.00000489,-0.00020793,0.00013333,-0.0000
 9390,-0.00011072,-0.00001315,-0.00049945,-0.00029788,-0.00020771,-0.00
 020992,-0.00000031,0.00004061,0.00007239,-0.00000353,0.00000379,-0.000
 05165,0.00001723,0.00003250,0.00000793,-0.00002801,0.00000260,-0.00002
 702,0.00002216,-0.00000856,0.00000005,0.00000290,0.00002156,-0.0000041
 5,0.00001517,0.00002111,0.00001130,-0.00000364,-0.00002087,-0.00000812
 ,0.00000700,-0.00004246,0.00000785,0.00001353,-0.00000750,0.00004604,-
 0.00000219,-0.00000988,0.00000380,0.00001319,0.00001376,-0.00001423,-0
 .00003777,-0.00001575,0.00000503,0.00001946,0.00006747,-0.00000427,-0.
 00000442,-0.00001845,-0.00002162,-0.00001692,0.00000304,-0.00000990,-0
 .00002157,0.00001048,0.00001705,0.00006930,-0.00003008,-0.00015432,-0.
 00008125,-0.00003631,-0.00009315,-0.00014031,-0.00025961,0.00026454,0.
 00010049,-0.00074392,-0.00064190,0.00016207,-0.00009091,0.00015788,-0.
 00001842,0.00003043,-0.00005797,0.00000499,0.00002843,-0.00001186,-0.0
 0002188,0.00000517,-0.00000675,0.00000351,0.00001830,0.00004861,-0.000
 01108,0.00002352,-0.00004585,-0.00003832,-0.00004881,0.00011243,-0.000
 23740,-0.00020522,-0.00018422,0.00084371,-0.00117270,-0.00042204,-0.00
 031988,-0.00016186,0.00013828,0.00002309,-0.00009194,-0.00004622,-0.00
 010247,-0.00003936,0.00008092,0.00008382,-0.00007266,0.00000359,-0.000
 01519,-0.00000134,0.00003875,-0.00001504,0.00000244,0.00001459,0.00000
 566,-0.00001685,0.00001861,0.00001754,-0.00000624,-0.00000260,-0.00000
 880,0.00001470,0.00000965,-0.00000381,0.00006754,-0.00007556,-0.000101
 75,0.00006167,0.00001838,0.00005955,0.00001365,-0.00016863,-0.00014936
 ,0.00015236,0.00017196,0.00001404,-0.00004964,0.00043485,0.00034530,-0
 .00075343,0.00052276,0.00105655,-0.00089098,0.00048486,0.00001673,0.00
 000516,0.00005205,-0.00477567,-0.00088633,0.00098071,-0.00308710,-0.02
 919237,-0.00285902,0.00007354,0.02244668,0.00404212,-0.00293668,0.0014
 8759,-0.00358204,0.00083751,0.00079003,0.00036061,-0.00054225,-0.00013
 337,0.00013059,0.00002854,-0.00009219,-0.00031225,0.00014675,-0.000151
 10,0.00022484,0.00080734,0.00086889,-0.00007217,-0.00008261,0.00012448
 ,-0.00005620,-0.00001780,-0.00004800,0.00000783,-0.00021512,0.00030304
 ,-0.00023525,-0.00118089,0.00029139,0.00003920,-0.00003123,-0.00012515
 ,-0.00012213,0.00026537,-0.00001840,-0.00004591,-0.04778577,0.00226173
 ,-0.00059950,0.05722769,-0.00003903,0.00001331,0.00000752,0.00001213,0
 .00005316,0.00005837,0.00008656,-0.00005276,0.00004941,-0.00004646,-0.
 00003343,0.00000319,0.00001041,-0.00005867,-0.00000775,0.00001390,0.00
 004678,0.00004479,-0.00002662,0.00000786,-0.00002591,0.00000896,-0.000
 02143,0.00001258,-0.00018584,0.00005329,-0.00008880,-0.00003899,0.0002
 5415,-0.00022417,-0.00017736,-0.00020323,-0.00033948,-0.00003857,0.000
 04325,0.00002931,-0.00002972,0.00000465,-0.00004908,0.00004969,0.00003
 751,-0.00000137,-0.00002396,0.00001857,-0.00002590,0.00000983,-0.00000
 251,0.00001473,0.00001478,0.00001728,0.00000474,-0.00001253,0.00000131
 ,-0.00000390,-0.00000075,-0.00001063,-0.00002026,0.00000130,0.00001593
 ,-0.00000217,0.00001200,0.00000548,0.00004420,0.00000861,-0.00002270,0
 .00001805,0.00001523,0.00002416,-0.00000718,-0.00003722,-0.00001981,-0
 .00001650,0.00000614,0.00005506,0.00000434,0.,0.00000249,-0.00002680,0
 .00000038,-0.00000793,-0.00001450,-0.00001065,0.00000176,0.00001508,0.
 00004955,0.00005619,-0.00007999,-0.00002883,-0.00004396,-0.00010228,-0
 .00017380,-0.00007486,0.00013021,0.00000422,-0.00005277,-0.00052402,0.
 00015365,0.00000688,0.00010724,-0.00001183,0.00002920,0.00000715,0.000
 05683,0.00002243,-0.00000635,-0.00002013,-0.00000811,-0.00003074,0.000
 01707,-0.00001904,0.00002559,0.00001593,0.00000872,-0.00003574,-0.0000
 2328,-0.00003420,0.00007276,-0.00013530,-0.00007431,-0.00007363,0.0010
 4741,0.00064701,-0.00096440,-0.00018717,-0.00035140,0.00049666,0.00011
 277,-0.00008056,-0.00005003,-0.00005967,-0.00006309,0.00002450,0.00005
 348,-0.00009746,0.,0.00000153,0.00002478,0.00006970,0.00000929,-0.0000
 0998,0.00000606,-0.00000177,0.00000447,0.00001946,0.00000946,-0.000006
 19,-0.00000438,-0.00001052,0.00001888,0.00001653,-0.00001583,0.0000780
 4,-0.00007708,-0.00011177,0.00004381,0.00003293,0.00003664,0.00005157,
 -0.00019772,-0.00022275,0.00014040,0.00021833,0.00004177,0.00025406,0.
 00015476,0.00017111,-0.00011468,0.00044805,0.00050676,0.00014761,0.000
 49458,-0.00002000,0.00004505,0.00007297,-0.00111604,0.00050724,0.00017
 432,-0.00104217,-0.00996195,-0.00075992,-0.00049346,-0.01290290,-0.002
 13233,0.00211054,-0.00017421,0.00174612,-0.00154892,0.00075197,-0.0012
 4355,0.00061064,0.00041723,0.00016486,0.00020834,0.00042535,0.00071483
 ,-0.00022576,0.00020714,-0.00014440,-0.00046876,-0.00030868,-0.0002694
 1,0.00007718,-0.00010629,0.00008493,0.00008542,0.00004098,0.00007934,0
 .00013429,-0.00013550,0.00011354,-0.00003539,0.00035023,0.00027698,-0.
 00005154,0.00017842,0.00010444,0.00002156,-0.00006166,0.00000914,0.002
 33224,-0.31007742,-0.02989699,-0.00170699,0.33581072,-0.00003141,0.000
 00705,-0.00000025,-0.00000306,-0.00002815,0.00005031,0.00002943,-0.000
 01821,-0.00003185,-0.00001589,-0.00001838,-0.00001032,0.00001958,-0.00
 002270,-0.00001823,0.00001769,0.00001091,0.00003365,0.00003020,0.00002
 062,-0.00001929,-0.00000295,0.00003714,-0.00001992,-0.00009266,0.00003
 886,-0.00006446,0.00003903,0.00006896,0.00024584,-0.00009141,-0.000040
 25,0.00005383,-0.00000597,0.00001169,0.00001325,0.00000420,0.00002109,
 0.00000054,0.00000390,0.00002400,0.00000891,-0.00000493,-0.00001335,0.
 00001101,-0.00000109,0.00000513,0.00000236,0.00002190,-0.00001048,-0.0
 0001843,0.00000057,0.00001110,-0.00001700,-0.00001909,-0.00000613,0.00
 000565,0.00002109,-0.00002124,-0.00002042,-0.00005209,0.00000657,0.000
 00150,0.00002930,-0.00000459,-0.00000575,-0.00004267,-0.00000600,0.000
 02456,0.00000349,-0.00001133,0.00000594,-0.00001298,-0.00000027,0.0000
 1125,0.00001303,0.00002271,-0.00001868,0.00001168,-0.00000900,0.000007
 01,0.00001972,-0.00001539,-0.00001685,0.00000851,-0.00004166,0.0000341
 6,0.00002028,-0.00003830,-0.00000718,-0.00006037,0.00008033,0.00001359
 ,-0.00003811,0.00008969,0.00006049,-0.00005578,0.00012636,-0.00003894,
 -0.00003164,-0.00002613,0.00006581,0.00001393,-0.00001306,0.00000820,0
 .00000360,-0.00001237,-0.00001650,0.00000457,-0.00000559,-0.00001571,-
 0.00000146,0.00000880,-0.00000129,-0.00000100,0.00002085,-0.00001382,0
 .00010195,0.00001653,0.00003594,0.00023186,0.00116820,-0.00015928,0.00
 018070,0.00007471,0.00013589,-0.00003439,-0.00002919,-0.00003869,0.000
 02419,0.00001785,-0.00003727,-0.00004244,0.00002366,0.00001613,0.00000
 654,0.00000656,0.00002032,-0.00000092,-0.00001102,-0.00001960,-0.00003
 313,-0.00000518,-0.00001465,0.00000402,-0.00000900,-0.00000636,0.00000
 311,0.00002299,-0.00002355,0.00000531,-0.00001659,0.00003950,0.0000434
 9,-0.00003289,-0.00000560,0.00001023,0.00003228,0.00005945,0.00001971,
 -0.00003546,-0.00012894,0.00013677,-0.00001920,0.00026979,-0.00009899,
 0.00024098,-0.00019940,-0.00016128,-0.00035215,-0.00030396,-0.00000493
 ,0.00001565,-0.00001284,0.00140120,0.00038435,0.00042301,0.00132515,0.
 00658817,-0.00051085,0.00038990,0.02236719,0.00159041,-0.00336304,0.00
 077096,-0.00279474,0.00012083,0.00061696,0.00106105,-0.00012050,-0.000
 08620,0.00005565,0.00017122,-0.00005818,-0.00043144,0.00027939,-0.0000
 3080,0.00015466,0.00006844,0.00085347,0.00053134,-0.00016424,0.0002306
 7,-0.00016271,0.00003022,-0.00003475,0.00001424,-0.00002326,0.00012416
 ,-0.00006778,0.00008566,-0.00067344,-0.00075479,-0.00009859,0.00022264
 ,0.00058891,-0.00004194,-0.00000923,0.00034983,-0.00081738,-0.03347337
 ,-0.05395144,0.00129573,0.03260724,0.05718077,-0.00006171,0.00000530,-
 0.00001603,0.00003078,-0.00026734,-0.00000622,-0.00028464,0.00006945,-
 0.00022250,0.00006161,0.00002365,0.00002833,0.00000925,0.00000033,0.00
 001060,0.00005231,-0.00003217,0.00002050,0.00005105,0.00000797,-0.0000
 2389,0.00000127,0.00005867,-0.00007556,0.00012146,0.00001016,0.0002068
 2,-0.00034034,0.00019616,0.00044571,0.00004848,-0.00018059,-0.00019648
 ,-0.00004015,0.00000010,-0.00003593,0.00002322,0.00009156,0.00000562,-
 0.00002768,0.00001630,-0.00001040,0.00002040,-0.00001043,0.00003602,-0
 .00002892,0.00001432,-0.00003384,-0.00000927,-0.00004265,-0.00002543,0
 .00002819,-0.00000714,-0.00005065,0.00000744,0.00000667,-0.00002890,0.
 00006466,-0.00006186,-0.00001145,-0.00015515,0.00000865,-0.00002798,0.
 00006468,0.00000954,0.00001719,-0.00012369,-0.00002399,0.00003838,0.00
 003712,0.00001236,0.00004133,-0.00003217,-0.00005050,0.00001776,0.0000
 3914,0.00003437,-0.00002759,0.00000823,-0.00000789,0.00000194,0.000063
 18,-0.00001948,-0.00001937,-0.00002530,-0.00011062,-0.00005444,0.00000
 163,-0.00006113,0.00007446,0.00004403,0.00011494,-0.00002416,0.0000880
 0,-0.00014619,0.00010881,-0.00040765,0.00055972,-0.00037623,-0.0000746
 2,-0.00002977,0.00012991,0.00000610,-0.00002763,0.00001576,-0.00001582
 ,-0.00002120,-0.00001110,0.00001117,0.00006552,-0.00005243,-0.00006399
 ,-0.00005110,-0.00000327,0.00002580,0.00008129,0.00004581,-0.00002750,
 -0.00007607,0.00004557,-0.00511418,-0.00410677,-0.00056096,0.00024668,
 0.00094759,0.00084202,0.00018023,0.00001527,0.00018151,0.00009653,0.00
 004971,-0.00000590,-0.00016218,0.00013078,-0.00003332,0.00000969,0.000
 00023,-0.00002114,-0.00000828,-0.00001591,-0.00003201,-0.00006618,-0.0
 0000367,-0.00003316,-0.00003795,-0.00001026,-0.00001760,0.00002207,0.0
 0002027,-0.00006483,-0.00001160,-0.00006782,0.00021096,0.00025966,-0.0
 0014822,-0.00011726,-0.00012604,0.00022136,0.00042865,0.00010321,0.000
 05059,-0.00008996,0.00002967,0.00042764,0.00035181,0.00025100,-0.00011
 039,-0.00009719,0.00156369,0.00009756,0.00141181,-0.00000473,-0.000089
 47,-0.00008189,0.00035026,0.00194975,0.00044158,-0.01395611,0.00573450
 ,0.02892681,0.00411872,-0.00221738,-0.02299390,-0.00001741,-0.00158631
 ,-0.00102792,-0.00123521,0.00168672,-0.00090334,-0.00017482,-0.0003171
 6,0.00013283,0.00022093,0.00016644,0.00034135,-0.00076439,-0.00032096,
 -0.00014139,-0.00083154,0.00020902,0.00095330,-0.00028588,0.00027661,-
 0.00021837,0.00000862,-0.00002784,-0.00001538,0.00004296,-0.00008468,0
 .00001204,0.00121271,-0.00013859,-0.00098769,0.00046838,-0.00028184,0.
 00026437,-0.00002871,0.00005341,-0.00010291,-0.05387555,0.01063287,0.0
 5270663,0.00028256,0.00026175,-0.00068180,0.06804255,0.00001977,-0.000
 00265,-0.00000048,-0.00000258,0.00001593,-0.00002307,0.00000277,-0.000
 07097,0.00006324,0.00001974,-0.00000326,-0.00000700,-0.00003011,0.0000
 1487,-0.00000542,-0.00000596,-0.00000921,-0.00002117,-0.00005141,-0.00
 000943,0.00000948,0.00003089,-0.00003431,0.00001127,0.00002384,-0.0000
 1877,0.00002757,-0.00003832,-0.00014855,-0.00009020,0.00011088,0.00012
 261,0.00000980,-0.00005342,-0.00004504,-0.00004798,0.00002538,0.000017
 88,-0.00001100,-0.00002101,-0.00000949,0.00000944,-0.00000047,-0.00000
 362,0.00000036,-0.00001533,-0.00001082,0.00001790,0.00000946,0.0000065
 3,0.00001617,-0.00002076,-0.00001508,-0.00000614,0.00001891,0.00000783
 ,-0.00001206,0.00001681,0.00002777,0.00002297,-0.00001906,-0.00001304,
 0.00002049,0.00002081,-0.00001977,0.00002387,0.00001252,0.00001300,-0.
 00000058,0.00000986,-0.00000986,-0.00001168,-0.00000298,0.00000397,0.0
 0001093,0.00000332,0.00000710,-0.00000636,-0.00000468,-0.00000133,0.00
 000617,-0.00000651,-0.00000162,-0.00001061,0.00000894,0.00006862,-0.00
 000504,0.00002240,0.00001953,0.00000727,0.00001304,0.00004768,-0.00004
 914,0.00006269,0.00012365,0.00006695,-0.00009037,0.00011496,-0.0000568
 1,0.00000779,0.00000506,-0.00001852,0.00001299,0.00000168,0.00000185,-
 0.00000015,-0.00000569,-0.00001235,-0.00003683,-0.00002509,-0.00001546
 ,-0.00000035,0.00000156,0.00004209,0.00004666,0.00002058,-0.00000816,0
 .00002981,-0.00007242,0.00002589,-0.00144999,-0.00016894,-0.00063626,0
 .00004177,0.00000322,0.00059044,0.00023518,-0.00006393,-0.00006637,-0.
 00006949,-0.00005403,0.00003366,0.00007877,-0.00003508,-0.00003712,-0.
 00001204,-0.00000131,-0.00000545,0.00001029,0.00000214,0.00000129,0.00
 000331,0.00000963,0.00000182,0.00000677,0.00000572,-0.00000082,0.00001
 496,-0.00000275,-0.00000273,-0.00002185,0.00006550,-0.00003366,-0.0000
 6673,-0.00002425,-0.00000510,-0.00000456,0.00011331,-0.00010722,-0.000
 18410,0.00015337,0.00024122,0.00012900,0.00019272,0.00011808,-0.000048
 20,0.00008515,-0.00003293,0.00066875,0.00006335,0.00005392,-0.00001201
 ,0.00001525,0.00000450,-0.00007981,0.00083094,-0.00006328,-0.00567111,
 0.00176778,0.01091316,-0.00389081,0.00318483,0.01322138,-0.00014202,-0
 .00168883,-0.00022070,0.00030980,-0.00053581,0.00018831,0.00001738,0.0
 0003561,-0.00007469,-0.00002507,0.00006354,0.00029872,0.00000646,0.000
 26671,0.00009824,0.00066786,-0.00031803,-0.00081259,0.00023705,-0.0002
 1317,0.00019381,-0.00001184,0.00001084,0.00001957,0.00003914,0.0001861
 4,0.00003238,0.00078962,-0.00064403,0.00363851,0.00028366,-0.00099216,
 -0.00095078,0.00012609,0.00017730,-0.00022145,0.01335304,-0.06004613,-
 0.04689928,0.00810582,-0.00573209,-0.03175781,-0.01356410,0.06317665,0
 .00004958,-0.00001623,0.00001987,-0.00000059,0.00001479,-0.00001615,0.
 00001587,0.00008466,0.00006087,-0.00003185,0.00003555,0.00002144,0.000
 06171,0.00000730,0.00004018,-0.00001136,-0.00000120,0.00000966,0.00003
 271,-0.00000665,0.00000483,-0.00004869,-0.00001802,0.00002022,-0.00000
 140,-0.00002768,-0.00001807,0.00001555,-0.00020584,-0.00032634,0.00027
 398,-0.00003286,0.00030545,0.00008218,0.00001704,0.00010066,-0.0000236
 4,-0.00001895,0.00001457,0.00003156,0.00000646,0.00000253,0.00001359,0
 .00001940,-0.00001261,0.00005186,-0.00000663,-0.00002166,0.00001672,0.
 00002806,-0.00000648,0.00000760,0.00002283,0.00000243,0.00000782,-0.00
 001640,-0.00000020,-0.00005370,-0.00000772,-0.00001454,0.00006447,0.00
 002449,-0.00003288,-0.00003148,0.00002217,-0.00003749,-0.00001325,-0.0
 0000344,-0.00001982,-0.00000128,0.00003911,0.00000832,-0.00000123,-0.0
 0000398,-0.00003168,-0.00002637,-0.00002166,0.00000274,0.00000360,0.00
 000334,-0.00003209,-0.00002489,0.00001045,-0.00000212,-0.00005018,-0.0
 0000520,0.00006040,-0.00004367,0.00003179,-0.00000792,0.00006501,-0.00
 003064,-0.00000199,-0.00020464,0.00002468,0.00001890,0.00014764,-0.000
 28638,0.00014864,-0.00002248,-0.00001205,-0.00002776,-0.00000117,-0.00
 001311,-0.00000447,0.00001480,-0.00001171,0.00003170,0.00005931,-0.000
 00133,0.00005148,0.00004435,0.00003509,-0.00006010,-0.00005746,-0.0000
 0530,-0.00001153,0.00004654,0.00012053,-0.00000419,0.00110315,0.000792
 81,0.00085772,-0.00014524,-0.00006644,-0.00005919,-0.00008288,0.000016
 58,0.00006899,-0.00000770,0.00003160,0.00005180,0.00003285,-0.00003226
 ,0.00001352,-0.00000357,-0.00001369,0.00001959,-0.00000672,-0.00000543
 ,0.00001187,-0.00000265,-0.00001833,0.00001152,0.00000327,0.00000366,0
 .00002933,-0.00001484,0.00000573,0.00003640,-0.00000919,0.00000289,-0.
 00000864,0.00001051,0.00005525,0.00000758,-0.00003121,-0.00009319,0.00
 000849,0.00018325,-0.00006515,-0.00019314,-0.00019316,0.00020678,0.000
 10683,0.00008814,0.00004169,-0.00020281,-0.00112777,0.00029531,0.00075
 498,0.00001143,-0.00002159,0.00002436,0.00078839,-0.00028822,-0.000148
 03,0.00301447,-0.00079347,-0.00551409,-0.00082232,-0.00013967,-0.01817
 449,-0.00221768,-0.00325105,-0.00011635,-0.00047272,0.00237828,-0.0012
 5825,-0.00002409,-0.00022693,0.00002070,0.00032915,-0.00009636,0.00025
 738,-0.00049149,-0.00035932,-0.00025162,-0.00037467,0.00043191,0.00057
 440,-0.00021426,0.00017106,-0.00020185,0.00006900,-0.00006506,-0.00000
 447,0.00007651,-0.00000508,-0.00005295,0.00094234,-0.00086396,0.000485
 16,0.00025675,0.00095211,0.00049936,-0.00012470,-0.00010025,0.00058019
 ,0.05720635,-0.04964688,-0.27750725,0.00072857,-0.00133280,-0.00320602
 ,-0.05893440,0.05230473,0.30224419\\-0.00000028,-0.00000002,-0.0000007
 3,0.00000108,0.00000011,-0.00000217,0.00000002,-0.00000082,-0.00000129
 ,-0.00000194,0.,0.00000178,0.00000106,0.,0.00000170,-0.00000067,-0.000
 00050,-0.00000220,0.00000035,0.00000264,-0.00000019,0.00000115,-0.0000
 0155,0.00000194,-0.00000136,0.00000070,-0.00000001,0.00000064,0.000000
 45,0.00000125,-0.00000095,0.00000106,0.00000154,0.00000002,0.00000082,
 -0.00000129,0.00000108,-0.00000012,-0.00000217,-0.00000028,0.00000002,
 -0.00000073,-0.00000067,0.00000050,-0.00000220,-0.00000128,-0.00000114
 ,0.00000163,-0.00000128,0.00000114,0.00000163,-0.00000186,-0.00000102,
 0.00000108,0.,0.00000156,-0.00000036,-0.00000138,-0.00000217,-0.000001
 63,0.00000148,-0.00000010,-0.00000092,0.00000018,0.00000103,0.00000041
 ,-0.00000045,-0.00000026,0.00000111,0.00000053,-0.00000069,0.00000035,
 0.00000053,0.00000069,0.00000035,-0.00000186,0.00000102,0.00000108,0.,
 -0.00000156,-0.00000036,0.00000035,-0.00000264,-0.00000019,-0.00000095
 ,-0.00000106,0.00000154,-0.00000061,-0.00000303,0.00000086,-0.00000069
 ,-0.00000162,0.00000068,0.00000390,0.00000381,-0.00000334,0.00000150,0
 .00000066,0.00000006,0.00000011,-0.00000034,0.00000173,-0.00000088,-0.
 00000049,0.00000253,0.00000148,0.00000010,-0.00000092,-0.00000138,0.00
 000217,-0.00000163,0.00000114,0.00000155,0.00000194,-0.00000136,-0.000
 00070,-0.00000002,0.00000065,-0.00000045,0.00000125,0.00000390,-0.0000
 0381,-0.00000334,0.00000150,-0.00000065,0.00000006,0.00000011,0.000000
 34,0.00000173,-0.00000114,0.,-0.00000205,0.00000118,0.,-0.00000014,0.0
 0000055,-0.00000006,0.00000208,0.00000018,-0.00000103,0.00000041,-0.00
 000045,0.00000026,0.00000111,0.00000005,-0.00000008,-0.00000228,0.0000
 0005,0.00000008,-0.00000228,0.00000055,0.00000006,0.00000208,-0.000000
 88,0.00000049,0.00000254,0.00000117,0.00000024,0.00000080,-0.00000061,
 0.00000303,0.00000086,-0.00000069,0.00000162,0.00000068,0.00000218,0.0
 0000029,-0.00000310,0.00000218,-0.00000029,-0.00000310,0.00000117,-0.0
 0000024,0.00000080,-0.00000842,0.00000571,0.00000284,-0.00000842,-0.00
 000571,0.00000285,-0.00000445,0.00000396,-0.00000236,-0.00000444,-0.00
 000396,-0.00000238,0.00000238,0.00000099,0.00000208,0.00000022,0.00000
 045,-0.00000087,0.00000074,-0.00000059,-0.00000055,-0.00000044,0.00000
 042,-0.00000068,0.00000238,-0.00000100,0.00000209,0.00000022,-0.000000
 45,-0.00000086,-0.00000043,-0.00000042,-0.00000069,0.00000074,0.000000
 60,-0.00000055,0.00000632,0.00000180,0.00000225,0.00000034,0.00000085,
 -0.00000217,-0.00000075,0.00000025,-0.00000100,0.00000632,-0.00000180,
 0.00000226,-0.00000075,-0.00000025,-0.00000100,0.00000034,-0.00000085,
 -0.00000217\\\@


 NEVER LISTEN TO CRITICISM
 OR YOU'LL BE DOIN' EVERYBODY ELSE'S THING BUT BUT YOUR OWN.

                                               -- ANDY CAPP
 Job cpu time:       0 days  0 hours  0 minutes  1.0 seconds.
 Elapsed time:       0 days 15 hours 28 minutes 25.4 seconds.
 File lengths (MBytes):  RWF=     22 Int=      0 D2E=      0 Chk=      3 Scr=      2
 Normal termination of Gaussian 16 at Sat Mar  9 01:35:26 2024.
