 Entering Gaussian System, Link 0=/mlatom/software/Gaussian/g16-avx2/g16
 Input=gaussian.com
 Output=gaussian.log
 Initial command:
 /mlatom/software/Gaussian/g16-avx2/l1.exe "/mlatom/home/huangyh/projects/delta_learning/paper/revision1/Starting_from_ub3lyp_d4/c60/AL/p/Gau-66641.inp" -scrdir="/mlatom/home/huangyh/projects/delta_learning/paper/revision1/Starting_from_ub3lyp_d4/c60/AL/p/"
 Entering Link 1 = /mlatom/software/Gaussian/g16-avx2/l1.exe PID=     66642.
  
 Copyright (c) 1988,1990,1992,1993,1995,1998,2003,2009,2016,
            Gaussian, Inc.  All Rights Reserved.
  
 This is part of the Gaussian(R) 16 program.  It is based on
 the Gaussian(R) 09 system (copyright 2009, Gaussian, Inc.),
 the Gaussian(R) 03 system (copyright 2003, Gaussian, Inc.),
 the Gaussian(R) 98 system (copyright 1998, Gaussian, Inc.),
 the Gaussian(R) 94 system (copyright 1995, Gaussian, Inc.),
 the Gaussian 92(TM) system (copyright 1992, Gaussian, Inc.),
 the Gaussian 90(TM) system (copyright 1990, Gaussian, Inc.),
 the Gaussian 88(TM) system (copyright 1988, Gaussian, Inc.),
 the Gaussian 86(TM) system (copyright 1986, Carnegie Mellon
 University), and the Gaussian 82(TM) system (copyright 1983,
 Carnegie Mellon University). Gaussian is a federally registered
 trademark of Gaussian, Inc.
  
 This software contains proprietary and confidential information,
 including trade secrets, belonging to Gaussian, Inc.
  
 This software is provided under written license and may be
 used, copied, transmitted, or stored only in accord with that
 written license.
  
 The following legend is applicable only to US Government
 contracts under FAR:
  
                    RESTRICTED RIGHTS LEGEND
  
 Use, reproduction and disclosure by the US Government is
 subject to restrictions as set forth in subparagraphs (a)
 and (c) of the Commercial Computer Software - Restricted
 Rights clause in FAR 52.227-19.
  
 Gaussian, Inc.
 340 Quinnipiac St., Bldg. 40, Wallingford CT 06492
  
  
 ---------------------------------------------------------------
 Warning -- This program may not be used in any manner that
 competes with the business of Gaussian, Inc. or will provide
 assistance to any competitor of Gaussian, Inc.  The licensee
 of this program is prohibited from giving any competitor of
 Gaussian, Inc. access to this program.  By using this program,
 the user acknowledges that Gaussian, Inc. is engaged in the
 business of creating and licensing software in the field of
 computational chemistry and represents and warrants to the
 licensee that it is not a competitor of Gaussian, Inc. and that
 it will not use this program in any manner prohibited above.
 ---------------------------------------------------------------
  

 Cite this work as:
 Gaussian 16, Revision A.03,
 M. J. Frisch, G. W. Trucks, H. B. Schlegel, G. E. Scuseria, 
 M. A. Robb, J. R. Cheeseman, G. Scalmani, V. Barone, 
 G. A. Petersson, H. Nakatsuji, X. Li, M. Caricato, A. V. Marenich, 
 J. Bloino, B. G. Janesko, R. Gomperts, B. Mennucci, H. P. Hratchian, 
 J. V. Ortiz, A. F. Izmaylov, J. L. Sonnenberg, D. Williams-Young, 
 F. Ding, F. Lipparini, F. Egidi, J. Goings, B. Peng, A. Petrone, 
 T. Henderson, D. Ranasinghe, V. G. Zakrzewski, J. Gao, N. Rega, 
 G. Zheng, W. Liang, M. Hada, M. Ehara, K. Toyota, R. Fukuda, 
 J. Hasegawa, M. Ishida, T. Nakajima, Y. Honda, O. Kitao, H. Nakai, 
 T. Vreven, K. Throssell, J. A. Montgomery, Jr., J. E. Peralta, 
 F. Ogliaro, M. J. Bearpark, J. J. Heyd, E. N. Brothers, K. N. Kudin, 
 V. N. Staroverov, T. A. Keith, R. Kobayashi, J. Normand, 
 K. Raghavachari, A. P. Rendell, J. C. Burant, S. S. Iyengar, 
 J. Tomasi, M. Cossi, J. M. Millam, M. Klene, C. Adamo, R. Cammi, 
 J. W. Ochterski, R. L. Martin, K. Morokuma, O. Farkas, 
 J. B. Foresman, and D. J. Fox, Gaussian, Inc., Wallingford CT, 2016.
 
 ******************************************
 Gaussian 16:  ES64L-G16RevA.03 25-Dec-2016
                27-May-2025 
 ******************************************
 %nproc=1
 Will use up to    1 processors via shared memory.
 ----------------------------------------------------------------------
 #p Freq external='/mlatom/software/miniconda3/bin/python /mlatom/softw
 are/mlatom_xacs/mlatom/interfaces/gaussian_interface.py model_predict_
 kwargs'
 ----------------------------------------------------------------------
 1/10=4,18=10,30=1,38=1/1,3;
 2/12=2,17=6,18=5,40=1/2;
 3/11=9,25=1,30=1,41=9900000,43=2,71=2,140=1/1;
 4/20=17,22=2,24=3,113=1,114=1/2;
 6/7=2,8=2,9=2,10=2/1;
 7/8=1,25=1,44=-1/16;
 1/10=4,18=10,30=1/3;
 99//99;
 Leave Link    1 at Tue May 27 10:36:29 2025, MaxMem=           0 cpu:               0.1 elap:               0.1
 (Enter /mlatom/software/Gaussian/g16-avx2/l101.exe)
 ------------------------------------
 08f12a90-2c75-4320-95a0-eee4f17dd218
 ------------------------------------
 Symbolic Z-matrix:
 Charge =  0 Multiplicity = 1
 C                    -1.93007   2.30002  -2.39101 
 C                    -0.50874   2.30191  -2.67109 
 C                     0.10456   1.17222  -3.21288 
 C                    -0.69247  0.        -3.51064 
 C                    -2.06172  0.        -3.2518 
 C                    -2.69305   1.17175  -2.67666 
 C                    -2.14349   3.02586  -1.15354 
 C                    -0.85128   3.47206  -0.66972 
 C                     0.15328   3.01758  -1.61134 
 C                     1.38796   2.56205  -1.14265 
 C                     1.39548   0.7376   -2.73182 
 C                     0.10456  -1.17222  -3.21288 
 C                    -0.50874  -2.30191  -2.67109 
 C                    -1.93007  -2.30002  -2.39101 
 C                    -2.69305  -1.17175  -2.67666 
 C                    -3.70399  -0.72448  -1.73884 
 C                    -3.70399   0.72448  -1.73884 
 C                    -3.90951   1.42097  -0.54961 
 C                    -3.11326   2.59492  -0.25073 
 C                    -0.58106   3.47288   0.69585 
 C                    -1.59037   3.02607   1.63635 
 C                    -2.8311    2.59491   1.17197 
 C                    -3.45293   1.42094   1.75216 
 C                    -4.12046   0.69634   0.68841 
 C                    -4.12046  -0.69634   0.68841 
 C                    -3.90951  -1.42097  -0.54961 
 C                    -3.11326  -2.59492  -0.25073 
 C                    -2.14349  -3.02586  -1.15354 
 C                     1.39548  -0.7376   -2.73182 
 C                     0.70661  -3.0175    1.18226 
 C                     1.66805  -2.56104   0.27835 
 C                     2.47961  -1.41767   0.57235 
 C                     2.28737  -0.73836   1.74764 
 C                     1.27463  -1.17178   2.68214 
 C                    -0.9201   -2.29951   2.69805 
 C                    -1.59037  -3.02607   1.63635 
 C                    -0.58106  -3.47288   0.69585 
 C                    -0.85128  -3.47206  -0.66972 
 C                     0.15328  -3.01758  -1.61134 
 C                     1.38796  -2.56205  -1.14265 
 C                     2.47961   1.41767   0.57235 
 C                     2.28737   0.73836   1.74764 
 C                     1.27463   1.17178   2.68214 
 C                     0.651     0.        3.2616 
 C                    -0.71356   0.        3.54464 
 C                    -1.51659  -1.17168   3.2539 
 C                    -2.8311   -2.59491   1.17197 
 C                    -3.45293  -1.42094   1.75217 
 C                    -2.80895  -0.72445   2.77287 
 C                    -2.80895   0.72445   2.77287 
 C                    -1.51659   1.17169   3.2539 
 C                    -0.9201    2.29951   2.69805 
 C                     0.5004    2.3015    2.41403 
 C                     0.70661   3.0175    1.18226 
 C                     1.66805   2.56104   0.27834 
 C                     2.02947  -1.42091  -1.72436 
 C                     2.02947   1.42091  -1.72436 
 C                     0.5004   -2.3015    2.41403 
 C                     3.00918  -0.79891  -0.72726 
 C                     3.00918   0.79891  -0.72726 
 C                     5.46583   0.67165  -0.07574 
 C                     5.46583  -0.67165  -0.07574 
 C                     6.34809   1.5707    0.75094 
 H                     6.94808   2.22412   0.1041 
 H                     5.73805   2.23177   1.38052 
 H                     7.03155   1.01732   1.40095 
 C                     6.34809  -1.5707    0.75094 
 H                     6.94808  -2.22412   0.1041 
 H                     7.03155  -1.01732   1.40095 
 H                     5.73805  -2.23177   1.38052 
 C                     4.4597   -1.33305  -0.98966 
 H                     4.70524  -1.14394  -2.04309 
 H                     4.45574  -2.41909  -0.85615 
 C                     4.4597    1.33305  -0.98966 
 H                     4.45574   2.41909  -0.85615 
 H                     4.70524   1.14394  -2.04309 
 
 ITRead=  0  0  0  0  0  0  0  0  0  0  0  0  0  0  0  0  0  0  0  0
 ITRead=  0  0  0  0  0  0  0  0  0  0  0  0  0  0  0  0  0  0  0  0
 ITRead=  0  0  0  0  0  0  0  0  0  0  0  0  0  0  0  0  0  0  0  0
 ITRead=  0  0  0  0  0  0  0  0  0  0  0  0  0  0  0  0
 MicOpt= -1 -1 -1 -1 -1 -1 -1 -1 -1 -1 -1 -1 -1 -1 -1 -1 -1 -1 -1 -1
 MicOpt= -1 -1 -1 -1 -1 -1 -1 -1 -1 -1 -1 -1 -1 -1 -1 -1 -1 -1 -1 -1
 MicOpt= -1 -1 -1 -1 -1 -1 -1 -1 -1 -1 -1 -1 -1 -1 -1 -1 -1 -1 -1 -1
 MicOpt= -1 -1 -1 -1 -1 -1 -1 -1 -1 -1 -1 -1 -1 -1 -1 -1
 NAtoms=     76 NQM=       76 NQMF=       0 NMMI=      0 NMMIF=      0
                NMic=       0 NMicF=      0.
                    Isotopes and Nuclear Properties:
 (Nuclear quadrupole moments (NQMom) in fm**2, nuclear magnetic moments (NMagM)
  in nuclear magnetons)

  Atom         1           2           3           4           5           6           7           8           9          10
 IAtWgt=          12          12          12          12          12          12          12          12          12          12
 AtmWgt=  12.0000000  12.0000000  12.0000000  12.0000000  12.0000000  12.0000000  12.0000000  12.0000000  12.0000000  12.0000000
 NucSpn=           0           0           0           0           0           0           0           0           0           0
 AtZEff=  -0.0000000  -0.0000000  -0.0000000  -0.0000000  -0.0000000  -0.0000000  -0.0000000  -0.0000000  -0.0000000  -0.0000000
 NQMom=    0.0000000   0.0000000   0.0000000   0.0000000   0.0000000   0.0000000   0.0000000   0.0000000   0.0000000   0.0000000
 NMagM=    0.0000000   0.0000000   0.0000000   0.0000000   0.0000000   0.0000000   0.0000000   0.0000000   0.0000000   0.0000000
 AtZNuc=   6.0000000   6.0000000   6.0000000   6.0000000   6.0000000   6.0000000   6.0000000   6.0000000   6.0000000   6.0000000

  Atom        11          12          13          14          15          16          17          18          19          20
 IAtWgt=          12          12          12          12          12          12          12          12          12          12
 AtmWgt=  12.0000000  12.0000000  12.0000000  12.0000000  12.0000000  12.0000000  12.0000000  12.0000000  12.0000000  12.0000000
 NucSpn=           0           0           0           0           0           0           0           0           0           0
 AtZEff=  -0.0000000  -0.0000000  -0.0000000  -0.0000000  -0.0000000  -0.0000000  -0.0000000  -0.0000000  -0.0000000  -0.0000000
 NQMom=    0.0000000   0.0000000   0.0000000   0.0000000   0.0000000   0.0000000   0.0000000   0.0000000   0.0000000   0.0000000
 NMagM=    0.0000000   0.0000000   0.0000000   0.0000000   0.0000000   0.0000000   0.0000000   0.0000000   0.0000000   0.0000000
 AtZNuc=   6.0000000   6.0000000   6.0000000   6.0000000   6.0000000   6.0000000   6.0000000   6.0000000   6.0000000   6.0000000

  Atom        21          22          23          24          25          26          27          28          29          30
 IAtWgt=          12          12          12          12          12          12          12          12          12          12
 AtmWgt=  12.0000000  12.0000000  12.0000000  12.0000000  12.0000000  12.0000000  12.0000000  12.0000000  12.0000000  12.0000000
 NucSpn=           0           0           0           0           0           0           0           0           0           0
 AtZEff=  -0.0000000  -0.0000000  -0.0000000  -0.0000000  -0.0000000  -0.0000000  -0.0000000  -0.0000000  -0.0000000  -0.0000000
 NQMom=    0.0000000   0.0000000   0.0000000   0.0000000   0.0000000   0.0000000   0.0000000   0.0000000   0.0000000   0.0000000
 NMagM=    0.0000000   0.0000000   0.0000000   0.0000000   0.0000000   0.0000000   0.0000000   0.0000000   0.0000000   0.0000000
 AtZNuc=   6.0000000   6.0000000   6.0000000   6.0000000   6.0000000   6.0000000   6.0000000   6.0000000   6.0000000   6.0000000

  Atom        31          32          33          34          35          36          37          38          39          40
 IAtWgt=          12          12          12          12          12          12          12          12          12          12
 AtmWgt=  12.0000000  12.0000000  12.0000000  12.0000000  12.0000000  12.0000000  12.0000000  12.0000000  12.0000000  12.0000000
 NucSpn=           0           0           0           0           0           0           0           0           0           0
 AtZEff=  -0.0000000  -0.0000000  -0.0000000  -0.0000000  -0.0000000  -0.0000000  -0.0000000  -0.0000000  -0.0000000  -0.0000000
 NQMom=    0.0000000   0.0000000   0.0000000   0.0000000   0.0000000   0.0000000   0.0000000   0.0000000   0.0000000   0.0000000
 NMagM=    0.0000000   0.0000000   0.0000000   0.0000000   0.0000000   0.0000000   0.0000000   0.0000000   0.0000000   0.0000000
 AtZNuc=   6.0000000   6.0000000   6.0000000   6.0000000   6.0000000   6.0000000   6.0000000   6.0000000   6.0000000   6.0000000

  Atom        41          42          43          44          45          46          47          48          49          50
 IAtWgt=          12          12          12          12          12          12          12          12          12          12
 AtmWgt=  12.0000000  12.0000000  12.0000000  12.0000000  12.0000000  12.0000000  12.0000000  12.0000000  12.0000000  12.0000000
 NucSpn=           0           0           0           0           0           0           0           0           0           0
 AtZEff=  -0.0000000  -0.0000000  -0.0000000  -0.0000000  -0.0000000  -0.0000000  -0.0000000  -0.0000000  -0.0000000  -0.0000000
 NQMom=    0.0000000   0.0000000   0.0000000   0.0000000   0.0000000   0.0000000   0.0000000   0.0000000   0.0000000   0.0000000
 NMagM=    0.0000000   0.0000000   0.0000000   0.0000000   0.0000000   0.0000000   0.0000000   0.0000000   0.0000000   0.0000000
 AtZNuc=   6.0000000   6.0000000   6.0000000   6.0000000   6.0000000   6.0000000   6.0000000   6.0000000   6.0000000   6.0000000

  Atom        51          52          53          54          55          56          57          58          59          60
 IAtWgt=          12          12          12          12          12          12          12          12          12          12
 AtmWgt=  12.0000000  12.0000000  12.0000000  12.0000000  12.0000000  12.0000000  12.0000000  12.0000000  12.0000000  12.0000000
 NucSpn=           0           0           0           0           0           0           0           0           0           0
 AtZEff=  -0.0000000  -0.0000000  -0.0000000  -0.0000000  -0.0000000  -0.0000000  -0.0000000  -0.0000000  -0.0000000  -0.0000000
 NQMom=    0.0000000   0.0000000   0.0000000   0.0000000   0.0000000   0.0000000   0.0000000   0.0000000   0.0000000   0.0000000
 NMagM=    0.0000000   0.0000000   0.0000000   0.0000000   0.0000000   0.0000000   0.0000000   0.0000000   0.0000000   0.0000000
 AtZNuc=   6.0000000   6.0000000   6.0000000   6.0000000   6.0000000   6.0000000   6.0000000   6.0000000   6.0000000   6.0000000

  Atom        61          62          63          64          65          66          67          68          69          70
 IAtWgt=          12          12          12           1           1           1          12           1           1           1
 AtmWgt=  12.0000000  12.0000000  12.0000000   1.0078250   1.0078250   1.0078250  12.0000000   1.0078250   1.0078250   1.0078250
 NucSpn=           0           0           0           1           1           1           0           1           1           1
 AtZEff=  -0.0000000  -0.0000000  -0.0000000  -0.0000000  -0.0000000  -0.0000000  -0.0000000  -0.0000000  -0.0000000  -0.0000000
 NQMom=    0.0000000   0.0000000   0.0000000   0.0000000   0.0000000   0.0000000   0.0000000   0.0000000   0.0000000   0.0000000
 NMagM=    0.0000000   0.0000000   0.0000000   2.7928460   2.7928460   2.7928460   0.0000000   2.7928460   2.7928460   2.7928460
 AtZNuc=   6.0000000   6.0000000   6.0000000   1.0000000   1.0000000   1.0000000   6.0000000   1.0000000   1.0000000   1.0000000

  Atom        71          72          73          74          75          76
 IAtWgt=          12           1           1          12           1           1
 AtmWgt=  12.0000000   1.0078250   1.0078250  12.0000000   1.0078250   1.0078250
 NucSpn=           0           1           1           0           1           1
 AtZEff=  -0.0000000  -0.0000000  -0.0000000  -0.0000000  -0.0000000  -0.0000000
 NQMom=    0.0000000   0.0000000   0.0000000   0.0000000   0.0000000   0.0000000
 NMagM=    0.0000000   2.7928460   2.7928460   0.0000000   2.7928460   2.7928460
 AtZNuc=   6.0000000   1.0000000   1.0000000   6.0000000   1.0000000   1.0000000
 Leave Link  101 at Tue May 27 10:36:29 2025, MaxMem=   104857600 cpu:               0.3 elap:               0.3
 (Enter /mlatom/software/Gaussian/g16-avx2/l103.exe)

 GradGradGradGradGradGradGradGradGradGradGradGradGradGradGradGradGradGrad
 Berny optimization.
 Initialization pass.
 Trust Radius=3.00D-01 FncErr=1.00D-07 GrdErr=1.00D-07 EigMax=2.50D+02 EigMin=1.00D-04
 Number of steps in this run=      2 maximum allowed number of steps=      2.
 GradGradGradGradGradGradGradGradGradGradGradGradGradGradGradGradGradGrad

 Leave Link  103 at Tue May 27 10:36:30 2025, MaxMem=   104857600 cpu:               0.1 elap:               0.1
 (Enter /mlatom/software/Gaussian/g16-avx2/l202.exe)
 Stoichiometry    C66H10
 Framework group  CS[SG(C4),X(C62H10)]
 Deg. of freedom   113
 Full point group                 CS      NOp   2
 Largest Abelian subgroup         CS      NOp   2
 Largest concise Abelian subgroup CS      NOp   2
                         Standard orientation:                         
 ---------------------------------------------------------------------
 Center     Atomic      Atomic             Coordinates (Angstroms)
 Number     Number       Type             X           Y           Z
 ---------------------------------------------------------------------
      1          6           0        1.562753   -2.645737   -2.300021
      2          6           0        2.323284   -1.412768   -2.301907
      3          6           0        3.045675   -1.028287   -1.172223
      4          6           0        3.045163   -1.879126    0.000000
      5          6           0        2.322777   -3.070763    0.000000
      6          6           0        1.562831   -3.460431   -1.171752
      7          6           0        0.328989   -2.411836   -3.025862
      8          6           0        0.328827   -1.032022   -3.472061
      9          6           0        1.562831   -0.421269   -3.017579
     10          6           0        1.556673    0.899361   -2.562051
     11          6           0        3.047646    0.349347   -0.737603
     12          6           0        3.045675   -1.028287    1.172223
     13          6           0        2.323284   -1.412768    2.301907
     14          6           0        1.562753   -2.645737    2.300021
     15          6           0        1.562831   -3.460431    1.171752
     16          6           0        0.330143   -4.078492    0.724479
     17          6           0        0.330143   -4.078492   -0.724479
     18          6           0       -0.855670   -3.854107   -1.420970
     19          6           0       -0.856475   -3.003614   -2.594920
     20          6           0       -0.855375   -0.300276   -3.472883
     21          6           0       -2.089996   -0.915874   -3.026069
     22          6           0       -2.089997   -2.240663   -2.594907
     23          6           0       -2.851351   -2.619652   -1.420937
     24          6           0       -2.089084   -3.617706   -0.696344
     25          6           0       -2.089084   -3.617706    0.696344
     26          6           0       -0.855670   -3.854107    1.420970
     27          6           0       -0.856475   -3.003614    2.594920
     28          6           0        0.328989   -2.411836    3.025862
     29          6           0        3.047646    0.349347    0.737603
     30          6           0       -0.859560    1.076198    3.017500
     31          6           0        0.324020    1.659785    2.561044
     32          6           0        0.333141    2.522908    1.417674
     33          6           0       -0.834957    2.754844    0.738364
     34          6           0       -2.065160    2.133925    1.171778
     35          6           0       -2.849383    0.084031    2.299511
     36          6           0       -2.089996   -0.915874    3.026069
     37          6           0       -0.855375   -0.300276    3.472883
     38          6           0        0.328827   -1.032022    3.472061
     39          6           0        1.562831   -0.421269    3.017579
     40          6           0        1.556673    0.899361    2.562051
     41          6           0        0.333141    2.522908   -1.417674
     42          6           0       -0.834957    2.754844   -0.738364
     43          6           0       -2.065160    2.133925   -1.171778
     44          6           0       -2.826457    1.752989    0.000000
     45          6           0       -3.569858    0.574219    0.000000
     46          6           0       -3.579054   -0.279773    1.171684
     47          6           0       -2.089997   -2.240663    2.594907
     48          6           0       -2.851351   -2.619652    1.420937
     49          6           0       -3.581564   -1.658750    0.724448
     50          6           0       -3.581564   -1.658750   -0.724448
     51          6           0       -3.579054   -0.279773   -1.171684
     52          6           0       -2.849383    0.084031   -2.299511
     53          6           0       -2.085460    1.314840   -2.301499
     54          6           0       -0.859560    1.076198   -3.017500
     55          6           0        0.324020    1.659785   -2.561044
     56          6           0        2.326344    1.296261    1.420913
     57          6           0        2.326344    1.296261   -1.420913
     58          6           0       -2.085460    1.314840    2.301499
     59          6           0        1.735926    2.563327    0.798914
     60          6           0        1.735926    2.563327   -0.798914
     61          6           0        1.986875    5.092480   -0.671651
     62          6           0        1.986875    5.092480    0.671651
     63          6           0        1.521910    6.208536   -1.570702
     64          1           0        2.338024    6.543718   -2.224125
     65          1           0        0.718437    5.857895   -2.231768
     66          1           0        1.152723    7.076485   -1.017317
     67          6           0        1.521910    6.208536    1.570702
     68          1           0        2.338024    6.543718    2.224125
     69          1           0        1.152723    7.076485    1.017317
     70          1           0        0.718437    5.857895    2.231768
     71          6           0        2.490126    3.829827    1.333053
     72          1           0        3.562792    3.690532    1.143938
     73          1           0        2.363708    3.872923    2.419087
     74          6           0        2.490126    3.829827   -1.333053
     75          1           0        2.363708    3.872923   -2.419087
     76          1           0        3.562792    3.690532   -1.143938
 ---------------------------------------------------------------------
 Rotational constants (GHZ):           0.0814076           0.0562825           0.0556548
 Leave Link  202 at Tue May 27 10:36:30 2025, MaxMem=   104857600 cpu:               0.1 elap:               0.1
 (Enter /mlatom/software/Gaussian/g16-avx2/l301.exe)
 Standard basis: STO-3G (5D, 7F)
 Ernie: Thresh=  0.10000D-02 Tol=  0.10000D-05 Strict=F.
 There are   176 symmetry adapted cartesian basis functions of A'  symmetry.
 There are   164 symmetry adapted cartesian basis functions of A"  symmetry.
 There are   176 symmetry adapted basis functions of A'  symmetry.
 There are   164 symmetry adapted basis functions of A"  symmetry.
   340 basis functions,  1020 primitive gaussians,   340 cartesian basis functions
   203 alpha electrons      203 beta electrons
       nuclear repulsion energy      9945.9705611012 Hartrees.
 IExCor=    0 DFT=F Ex=HF Corr=None ExCW=0 ScaHFX=  1.000000
 ScaDFX=  1.000000  1.000000  1.000000  1.000000 ScalE2=  1.000000  1.000000
 IRadAn=      5 IRanWt=     -1 IRanGd=            0 ICorTp=0 IEmpDi=  4
 NAtoms=   76 NActive=   76 NUniq=   40 SFac= 3.61D+00 NAtFMM=   60 NAOKFM=T Big=F
 Integral buffers will be    131072 words long.
 Raffenetti 1 integral format.
 Two-electron integral symmetry is turned on.
 Leave Link  301 at Tue May 27 10:36:30 2025, MaxMem=   104857600 cpu:               0.1 elap:               0.2
 (Enter /mlatom/software/Gaussian/g16-avx2/l402.exe)
 External calculation of energy, first and second derivatives.
 Running external command "/mlatom/software/miniconda3/bin/python /mlatom/software/mlatom_xacs/mlatom/interfaces/gaussian_interface.py model_predict_kwargs R"
         input file       "/mlatom/home/huangyh/projects/delta_learning/paper/revision1/Starting_from_ub3lyp_d4/c60/AL/p/Gau-66642.EIn"
         output file      "/mlatom/home/huangyh/projects/delta_learning/paper/revision1/Starting_from_ub3lyp_d4/c60/AL/p/Gau-66642.EOu"
         message file     "/mlatom/home/huangyh/projects/delta_learning/paper/revision1/Starting_from_ub3lyp_d4/c60/AL/p/Gau-66642.EMs"
         fchk file        "/mlatom/home/huangyh/projects/delta_learning/paper/revision1/Starting_from_ub3lyp_d4/c60/AL/p/Gau-66642.EFC"
         mat. el file     "/mlatom/home/huangyh/projects/delta_learning/paper/revision1/Starting_from_ub3lyp_d4/c60/AL/p/Gau-66642.EUF"
model loaded from /mlatom/home/huangyh/projects/delta_learning/paper/revision1/Starting_from_ub3lyp_d4/c60/AL/AL_main_model_C60_butadiene.npz
 Recovered energy= -2521.21507509     dipole=      0.000000000000      0.000000000000      0.000000000000
 Energy=    -2521.21508     NIter=   0.
 Dipole moment=       0.000000       0.000000       0.000000
 Leave Link  402 at Tue May 27 10:37:09 2025, MaxMem=   104857600 cpu:               0.1 elap:              38.9
 (Enter /mlatom/software/Gaussian/g16-avx2/l601.exe)
 Leave Link  601 at Tue May 27 10:37:09 2025, MaxMem=   104857600 cpu:               0.1 elap:               0.4
 (Enter /mlatom/software/Gaussian/g16-avx2/l716.exe)
 Dipole        = 0.00000000D+00 0.00000000D+00 0.00000000D+00
 Full mass-weighted force constant matrix:
 Low frequencies ---   -0.1879   -0.1178    0.0581    0.0922    0.1669    0.1913
 Low frequencies ---   48.1900   73.2828   95.4999
 Diagonal vibrational polarizability:
        0.0000000       0.0000000       0.0000000
 Harmonic frequencies (cm**-1), IR intensities (KM/Mole), Raman scattering
 activities (A**4/AMU), depolarization ratios for plane and unpolarized
 incident light, reduced masses (AMU), force constants (mDyne/A),
 and normal coordinates:
                      1                      2                      3
                     A'                     A"                     A"
 Frequencies --     48.1900                73.2828                95.4999
 Red. masses --      3.6154                 3.3673                 3.4480
 Frc consts  --      0.0049                 0.0107                 0.0185
 IR Inten    --      0.0000                 0.0000                 0.0000
  Atom  AN      X      Y      Z        X      Y      Z        X      Y      Z
     1   6     0.01   0.01  -0.00    -0.00   0.01  -0.01    -0.01  -0.02   0.00
     2   6    -0.01   0.02  -0.00    -0.00   0.01   0.00    -0.01  -0.02  -0.01
     3   6    -0.01   0.03  -0.00    -0.00   0.01   0.00    -0.00  -0.01  -0.02
     4   6    -0.00   0.03   0.00    -0.00   0.00  -0.00    -0.00   0.00  -0.01
     5   6     0.01   0.02   0.00     0.00   0.00  -0.01     0.00   0.00   0.00
     6   6     0.02   0.01  -0.00    -0.00   0.01  -0.01    -0.01  -0.01   0.01
     7   6     0.00   0.00  -0.00    -0.00   0.02  -0.01    -0.01  -0.03   0.01
     8   6    -0.01   0.00   0.00    -0.00   0.02   0.00    -0.01  -0.03  -0.01
     9   6    -0.02   0.01   0.00    -0.00   0.02   0.01    -0.01  -0.02  -0.02
    10   6    -0.03   0.01   0.00    -0.01   0.01   0.02    -0.00  -0.01  -0.03
    11   6    -0.02   0.03  -0.00    -0.00   0.00   0.01    -0.00  -0.00  -0.03
    12   6    -0.01   0.03   0.00     0.00  -0.01   0.00     0.00   0.01  -0.02
    13   6    -0.01   0.02   0.00     0.00  -0.01   0.00     0.01   0.02  -0.01
    14   6     0.01   0.01   0.00     0.00  -0.01  -0.01     0.01   0.02   0.00
    15   6     0.02   0.01   0.00     0.00  -0.01  -0.01     0.01   0.01   0.01
    16   6     0.02   0.00   0.00     0.00  -0.01  -0.02     0.00   0.01   0.02
    17   6     0.02   0.00  -0.00    -0.00   0.01  -0.02    -0.00  -0.01   0.02
    18   6     0.02  -0.01  -0.00    -0.00   0.01  -0.01    -0.01  -0.01   0.03
    19   6     0.01  -0.01   0.00    -0.00   0.02  -0.01    -0.01  -0.02   0.02
    20   6    -0.02  -0.01   0.00    -0.00   0.03   0.01    -0.01  -0.03  -0.01
    21   6    -0.01  -0.02   0.00    -0.00   0.02   0.01    -0.01  -0.03   0.00
    22   6     0.00  -0.02   0.00    -0.00   0.02  -0.00    -0.01  -0.02   0.01
    23   6     0.01  -0.03   0.00    -0.00   0.01  -0.00    -0.00  -0.01   0.02
    24   6     0.02  -0.02  -0.00    -0.00   0.01  -0.01    -0.00  -0.01   0.03
    25   6     0.02  -0.02   0.00     0.00  -0.01  -0.01     0.00   0.01   0.03
    26   6     0.02  -0.01   0.00     0.00  -0.01  -0.01     0.01   0.01   0.03
    27   6     0.01  -0.01  -0.00     0.00  -0.02  -0.01     0.01   0.02   0.02
    28   6     0.00   0.00   0.00     0.00  -0.02  -0.01     0.01   0.03   0.01
    29   6    -0.02   0.03   0.00     0.00  -0.00   0.01     0.00   0.00  -0.03
    30   6    -0.03  -0.01  -0.00     0.00  -0.02   0.02     0.01   0.03  -0.02
    31   6    -0.04   0.01  -0.00     0.00  -0.02   0.02     0.01   0.02  -0.03
    32   6    -0.04   0.01   0.00    -0.00  -0.02   0.02     0.00   0.00  -0.04
    33   6    -0.05  -0.01   0.00    -0.00  -0.01   0.03     0.00   0.00  -0.04
    34   6    -0.04  -0.02  -0.00    -0.00  -0.01   0.03     0.00   0.01  -0.03
    35   6    -0.02  -0.03  -0.00     0.00  -0.02   0.02     0.01   0.02  -0.01
    36   6    -0.01  -0.02  -0.00     0.00  -0.02   0.01     0.01   0.03   0.00
    37   6    -0.02  -0.01  -0.00     0.00  -0.03   0.01     0.01   0.03  -0.01
    38   6    -0.01   0.00  -0.00     0.00  -0.02   0.00     0.01   0.03  -0.01
    39   6    -0.02   0.01  -0.00     0.00  -0.02   0.01     0.01   0.02  -0.02
    40   6    -0.03   0.01  -0.00     0.01  -0.01   0.02     0.00   0.01  -0.03
    41   6    -0.04   0.01  -0.00     0.00   0.02   0.02    -0.00  -0.00  -0.04
    42   6    -0.05  -0.01  -0.00     0.00   0.01   0.03    -0.00  -0.00  -0.04
    43   6    -0.04  -0.02   0.00     0.00   0.01   0.03    -0.00  -0.01  -0.03
    44   6    -0.04  -0.03  -0.00    -0.00  -0.00   0.03    -0.00  -0.00  -0.02
    45   6    -0.03  -0.04  -0.00    -0.00  -0.00   0.02    -0.00  -0.00  -0.01
    46   6    -0.02  -0.04  -0.00     0.00  -0.01   0.02     0.00   0.01  -0.00
    47   6     0.00  -0.02  -0.00     0.00  -0.02  -0.00     0.01   0.02   0.01
    48   6     0.01  -0.03  -0.00     0.00  -0.01  -0.00     0.00   0.01   0.02
    49   6    -0.00  -0.04  -0.00     0.00  -0.01   0.00     0.00   0.01   0.01
    50   6    -0.00  -0.04   0.00    -0.00   0.01   0.00    -0.00  -0.01   0.01
    51   6    -0.02  -0.04   0.00    -0.00   0.01   0.02    -0.00  -0.01  -0.00
    52   6    -0.02  -0.03   0.00    -0.00   0.02   0.02    -0.01  -0.02  -0.01
    53   6    -0.03  -0.02   0.00    -0.00   0.02   0.02    -0.01  -0.02  -0.02
    54   6    -0.03  -0.01   0.00    -0.00   0.02   0.02    -0.01  -0.03  -0.02
    55   6    -0.04   0.01   0.00    -0.00   0.02   0.02    -0.01  -0.02  -0.03
    56   6    -0.04   0.02  -0.00     0.01   0.00   0.02    -0.01  -0.00  -0.04
    57   6    -0.04   0.02   0.00    -0.01  -0.00   0.02     0.01   0.00  -0.04
    58   6    -0.03  -0.02  -0.00     0.00  -0.02   0.02     0.01   0.02  -0.02
    59   6    -0.04   0.02  -0.00    -0.01   0.00   0.02    -0.00  -0.01  -0.04
    60   6    -0.04   0.02   0.00     0.01  -0.00   0.02     0.00   0.01  -0.04
    61   6     0.09   0.02   0.00     0.07  -0.01  -0.07     0.02   0.03   0.08
    62   6     0.09   0.02  -0.00    -0.07   0.01  -0.07    -0.02  -0.03   0.08
    63   6     0.26   0.10   0.00     0.23  -0.01  -0.15     0.17   0.15   0.15
    64   1     0.32  -0.03   0.02     0.33  -0.08  -0.06     0.25   0.14   0.24
    65   1     0.21   0.23  -0.01     0.29   0.03  -0.23     0.18   0.30   0.05
    66   1     0.39   0.15   0.01     0.22   0.03  -0.21     0.21   0.13   0.21
    67   6     0.26   0.10  -0.00    -0.23   0.01  -0.15    -0.17  -0.15   0.15
    68   1     0.32  -0.03  -0.02    -0.33   0.08  -0.06    -0.25  -0.14   0.24
    69   1     0.39   0.15  -0.01    -0.22  -0.03  -0.21    -0.21  -0.13   0.21
    70   1     0.21   0.23   0.01    -0.29  -0.03  -0.23    -0.18  -0.30   0.05
    71   6    -0.01  -0.01   0.01    -0.07   0.05   0.01     0.01  -0.05   0.01
    72   1    -0.01  -0.06   0.04    -0.06   0.07   0.07     0.01  -0.04  -0.02
    73   1    -0.03  -0.00   0.01    -0.13   0.09   0.00     0.03  -0.11   0.01
    74   6    -0.01  -0.01  -0.01     0.07  -0.05   0.01    -0.01   0.05   0.01
    75   1    -0.03  -0.00  -0.01     0.13  -0.09   0.00    -0.03   0.11   0.01
    76   1    -0.01  -0.06  -0.04     0.06  -0.07   0.07    -0.01   0.04  -0.02
                      4                      5                      6
                     A'                     A'                     A"
 Frequencies --    148.2079               169.3951               181.8020
 Red. masses --      1.0221                 4.3763                 1.8774
 Frc consts  --      0.0132                 0.0740                 0.0366
 IR Inten    --      0.0000                 0.0000                 0.0000
  Atom  AN      X      Y      Z        X      Y      Z        X      Y      Z
     1   6     0.00  -0.00  -0.00    -0.01  -0.04   0.01    -0.01  -0.01  -0.01
     2   6     0.00  -0.00  -0.00    -0.00  -0.04   0.01    -0.01  -0.01  -0.01
     3   6     0.00  -0.00  -0.00    -0.00  -0.04   0.01    -0.01  -0.00  -0.02
     4   6     0.00  -0.00   0.00    -0.02  -0.05   0.00    -0.00  -0.00  -0.02
     5   6     0.00  -0.00   0.00    -0.03  -0.05   0.00    -0.00  -0.00  -0.01
     6   6    -0.00  -0.00   0.00    -0.03  -0.05   0.00    -0.01  -0.00  -0.00
     7   6     0.00   0.00   0.00    -0.01  -0.03   0.01    -0.02  -0.01  -0.00
     8   6     0.00  -0.00   0.00     0.01  -0.03   0.01    -0.01  -0.01  -0.01
     9   6     0.00  -0.00   0.00     0.02  -0.03   0.01    -0.01  -0.01  -0.01
    10   6     0.00  -0.00   0.00     0.05  -0.03   0.00    -0.00  -0.00  -0.02
    11   6     0.00  -0.00  -0.00     0.02  -0.03   0.00    -0.00  -0.00  -0.02
    12   6     0.00  -0.00   0.00    -0.00  -0.04  -0.01     0.01   0.00  -0.02
    13   6     0.00  -0.00   0.00    -0.00  -0.04  -0.01     0.01   0.01  -0.01
    14   6     0.00  -0.00   0.00    -0.01  -0.04  -0.01     0.01   0.01  -0.01
    15   6    -0.00  -0.00  -0.00    -0.03  -0.05  -0.00     0.01   0.00  -0.00
    16   6    -0.00   0.00  -0.00    -0.04  -0.04  -0.00     0.00   0.00   0.01
    17   6    -0.00   0.00   0.00    -0.04  -0.04   0.00    -0.00  -0.00   0.01
    18   6    -0.00   0.00   0.00    -0.04  -0.02   0.00    -0.01  -0.01   0.01
    19   6     0.00   0.00   0.00    -0.02  -0.02   0.00    -0.01  -0.01   0.01
    20   6     0.00   0.00   0.00     0.02  -0.02   0.01    -0.01  -0.01  -0.01
    21   6     0.00   0.00  -0.00     0.01  -0.00   0.00    -0.01  -0.01   0.00
    22   6     0.00   0.00   0.00    -0.01  -0.00   0.00    -0.01  -0.01   0.01
    23   6     0.00   0.00   0.00    -0.02   0.01  -0.00    -0.01  -0.01   0.01
    24   6    -0.00   0.00   0.00    -0.03  -0.01  -0.00    -0.00  -0.00   0.02
    25   6    -0.00   0.00  -0.00    -0.03  -0.01   0.00     0.00   0.00   0.02
    26   6    -0.00   0.00  -0.00    -0.04  -0.02  -0.00     0.01   0.01   0.01
    27   6     0.00   0.00  -0.00    -0.02  -0.02  -0.00     0.01   0.01   0.01
    28   6     0.00   0.00  -0.00    -0.01  -0.03  -0.01     0.02   0.01  -0.00
    29   6     0.00  -0.00   0.00     0.02  -0.03  -0.00     0.00   0.00  -0.02
    30   6     0.00   0.00  -0.00     0.04  -0.02  -0.01     0.00   0.01  -0.01
    31   6     0.00  -0.00  -0.00     0.04  -0.03  -0.01     0.00  -0.00  -0.02
    32   6     0.00  -0.00  -0.00     0.03  -0.03  -0.01    -0.01  -0.02  -0.03
    33   6     0.00  -0.00  -0.00     0.04  -0.01  -0.00    -0.00  -0.00  -0.03
    34   6     0.00   0.00   0.00     0.04  -0.00   0.00    -0.00   0.00  -0.02
    35   6     0.00   0.00   0.00     0.02   0.01   0.00     0.01   0.01  -0.00
    36   6     0.00   0.00   0.00     0.01  -0.00  -0.00     0.01   0.01   0.00
    37   6     0.00   0.00  -0.00     0.02  -0.02  -0.01     0.01   0.01  -0.01
    38   6     0.00  -0.00  -0.00     0.01  -0.03  -0.01     0.01   0.01  -0.01
    39   6     0.00  -0.00  -0.00     0.02  -0.03  -0.01     0.01   0.01  -0.01
    40   6     0.00  -0.00  -0.00     0.05  -0.03  -0.00     0.00   0.00  -0.02
    41   6     0.00  -0.00   0.00     0.03  -0.03   0.01     0.01   0.02  -0.03
    42   6     0.00  -0.00   0.00     0.04  -0.01   0.00     0.00   0.00  -0.03
    43   6     0.00   0.00  -0.00     0.04  -0.00  -0.00     0.00  -0.00  -0.02
    44   6     0.00   0.00   0.00     0.03   0.01   0.00     0.00   0.00  -0.02
    45   6     0.00   0.00   0.00     0.03   0.02   0.00     0.00   0.00  -0.01
    46   6     0.00   0.00   0.00     0.02   0.02   0.00     0.00   0.01  -0.00
    47   6     0.00   0.00  -0.00    -0.01  -0.00  -0.00     0.01   0.01   0.01
    48   6     0.00   0.00  -0.00    -0.02   0.01   0.00     0.01   0.01   0.01
    49   6     0.00   0.00  -0.00    -0.00   0.02   0.00     0.00   0.00   0.01
    50   6     0.00   0.00   0.00    -0.00   0.02  -0.00    -0.00  -0.00   0.01
    51   6     0.00   0.00  -0.00     0.02   0.02  -0.00    -0.00  -0.01  -0.00
    52   6     0.00   0.00  -0.00     0.02   0.01  -0.00    -0.01  -0.01  -0.00
    53   6     0.00   0.00   0.00     0.04  -0.00   0.00    -0.01  -0.01  -0.01
    54   6     0.00   0.00   0.00     0.04  -0.02   0.01    -0.00  -0.01  -0.01
    55   6     0.00  -0.00   0.00     0.04  -0.03   0.01    -0.00   0.00  -0.02
    56   6     0.00  -0.00  -0.00     0.06   0.00   0.00     0.00  -0.00  -0.02
    57   6     0.00  -0.00   0.00     0.06   0.00  -0.00    -0.00   0.00  -0.02
    58   6     0.00   0.00  -0.00     0.04  -0.00  -0.00     0.01   0.01  -0.01
    59   6     0.00  -0.00  -0.00     0.03   0.02   0.00    -0.01  -0.00   0.00
    60   6     0.00  -0.00   0.00     0.03   0.02  -0.00     0.01   0.00   0.00
    61   6     0.01   0.00  -0.00    -0.17   0.09   0.00     0.02  -0.02   0.07
    62   6     0.01   0.00   0.00    -0.17   0.09  -0.00    -0.02   0.02   0.07
    63   6    -0.02  -0.01   0.00     0.02   0.20   0.02    -0.01  -0.07   0.01
    64   1    -0.15  -0.27  -0.29     0.12   0.10   0.09     0.05   0.14   0.20
    65   1    -0.30   0.09   0.29     0.01   0.37  -0.06     0.21  -0.24  -0.17
    66   1     0.34   0.14   0.01     0.12   0.23   0.03    -0.33  -0.17  -0.04
    67   6    -0.02  -0.01  -0.00     0.02   0.20  -0.02     0.01   0.07   0.01
    68   1    -0.15  -0.27   0.29     0.12   0.10  -0.09    -0.05  -0.14   0.20
    69   1     0.34   0.14  -0.01     0.12   0.23  -0.03     0.33   0.17  -0.04
    70   1    -0.30   0.09  -0.29     0.01   0.37   0.06    -0.21   0.24  -0.17
    71   6    -0.00   0.00   0.01    -0.13   0.11   0.02    -0.09   0.01   0.10
    72   1    -0.00  -0.01   0.02    -0.10   0.22   0.07    -0.06   0.03   0.24
    73   1    -0.02  -0.00   0.00    -0.19   0.11   0.01    -0.23  -0.01   0.09
    74   6    -0.00   0.00  -0.01    -0.13   0.11  -0.02     0.09  -0.01   0.10
    75   1    -0.02  -0.00  -0.00    -0.19   0.11  -0.01     0.23   0.01   0.09
    76   1    -0.00  -0.01  -0.02    -0.10   0.22  -0.07     0.06  -0.03   0.24
                      7                      8                      9
                     A"                     A'                     A"
 Frequencies --    210.3393               221.7082               245.7102
 Red. masses --      1.3234                 6.6653                11.9067
 Frc consts  --      0.0345                 0.1930                 0.4235
 IR Inten    --      0.0000                 0.0000                 0.0000
  Atom  AN      X      Y      Z        X      Y      Z        X      Y      Z
     1   6    -0.01  -0.01  -0.01    -0.05  -0.00   0.02    -0.09   0.08   0.12
     2   6    -0.01  -0.00  -0.01    -0.05   0.01   0.03    -0.12   0.07   0.14
     3   6    -0.00  -0.00  -0.01    -0.05   0.03   0.01    -0.10   0.03   0.12
     4   6     0.00  -0.00  -0.01    -0.07   0.02  -0.00    -0.00   0.00   0.11
     5   6     0.00   0.00  -0.01    -0.06   0.01  -0.00    -0.00   0.00   0.10
     6   6    -0.00  -0.00  -0.00    -0.05  -0.01   0.01    -0.04   0.06   0.10
     7   6    -0.01  -0.01  -0.00    -0.04  -0.02   0.02    -0.07   0.07   0.08
     8   6    -0.01  -0.01  -0.00    -0.02  -0.01   0.03    -0.08   0.06   0.05
     9   6    -0.01  -0.00  -0.01    -0.04   0.01   0.04    -0.11   0.05   0.10
    10   6    -0.00  -0.00  -0.01     0.00   0.03   0.01    -0.10   0.04   0.07
    11   6    -0.00  -0.00  -0.01    -0.01   0.04   0.00    -0.09   0.02   0.11
    12   6     0.00   0.00  -0.01    -0.05   0.03  -0.01     0.10  -0.03   0.12
    13   6     0.01   0.00  -0.01    -0.05   0.01  -0.03     0.12  -0.07   0.14
    14   6     0.01   0.01  -0.01    -0.05  -0.00  -0.02     0.09  -0.08   0.12
    15   6     0.00   0.00  -0.00    -0.05  -0.01  -0.01     0.04  -0.06   0.10
    16   6     0.00   0.00   0.00    -0.04  -0.06   0.00     0.02  -0.04   0.07
    17   6    -0.00  -0.00   0.00    -0.04  -0.06  -0.00    -0.02   0.04   0.07
    18   6    -0.01  -0.01   0.01    -0.04  -0.08  -0.01    -0.02   0.05   0.04
    19   6    -0.01  -0.01   0.00    -0.03  -0.05   0.01    -0.05   0.05   0.03
    20   6    -0.01  -0.01  -0.00    -0.01  -0.02   0.03    -0.08   0.05  -0.05
    21   6    -0.01  -0.01  -0.00    -0.00  -0.04   0.03    -0.09   0.03  -0.08
    22   6    -0.01  -0.01   0.00    -0.03  -0.06   0.01    -0.06   0.03  -0.04
    23   6    -0.00  -0.01   0.01    -0.04  -0.08  -0.00    -0.05  -0.00  -0.04
    24   6    -0.00  -0.00   0.01    -0.05  -0.10  -0.00    -0.02   0.01  -0.00
    25   6     0.00   0.00   0.01    -0.05  -0.10   0.00     0.02  -0.01  -0.00
    26   6     0.01   0.01   0.01    -0.04  -0.08   0.01     0.02  -0.05   0.04
    27   6     0.01   0.01   0.00    -0.03  -0.05  -0.01     0.05  -0.05   0.03
    28   6     0.01   0.01  -0.00    -0.04  -0.02  -0.02     0.07  -0.07   0.08
    29   6     0.00   0.00  -0.01    -0.01   0.04  -0.00     0.09  -0.02   0.11
    30   6     0.00   0.01  -0.01     0.02  -0.02  -0.03     0.09  -0.08  -0.10
    31   6    -0.00  -0.00  -0.01     0.01   0.04  -0.00     0.08  -0.07  -0.06
    32   6    -0.01  -0.01  -0.01     0.05   0.11   0.02     0.06  -0.10  -0.08
    33   6    -0.00  -0.00  -0.01     0.04   0.03   0.00     0.06  -0.08  -0.10
    34   6    -0.00   0.00  -0.01     0.05  -0.03  -0.02     0.08  -0.08  -0.12
    35   6     0.00   0.01  -0.00     0.02  -0.04  -0.03     0.12  -0.05  -0.12
    36   6     0.01   0.01  -0.00    -0.00  -0.04  -0.03     0.09  -0.03  -0.08
    37   6     0.01   0.01  -0.00    -0.01  -0.02  -0.03     0.08  -0.05  -0.05
    38   6     0.01   0.01  -0.00    -0.02  -0.01  -0.03     0.08  -0.06   0.05
    39   6     0.01   0.00  -0.01    -0.04   0.01  -0.04     0.11  -0.05   0.10
    40   6     0.00   0.00  -0.01     0.00   0.03  -0.01     0.10  -0.04   0.07
    41   6     0.01   0.01  -0.01     0.05   0.11  -0.02    -0.06   0.10  -0.08
    42   6     0.00   0.00  -0.01     0.04   0.03  -0.00    -0.06   0.08  -0.10
    43   6     0.00  -0.00  -0.01     0.05  -0.03   0.02    -0.08   0.08  -0.12
    44   6    -0.00   0.00  -0.01     0.06  -0.06  -0.00     0.00  -0.00  -0.10
    45   6    -0.00   0.00  -0.01     0.04  -0.06  -0.00     0.00  -0.00  -0.09
    46   6     0.00   0.00  -0.00     0.01  -0.06  -0.01     0.08  -0.01  -0.10
    47   6     0.01   0.01   0.00    -0.03  -0.06  -0.01     0.06  -0.03  -0.04
    48   6     0.00   0.01   0.01    -0.04  -0.08   0.00     0.05   0.00  -0.04
    49   6     0.00   0.00   0.00    -0.03  -0.07  -0.00     0.05  -0.00  -0.07
    50   6    -0.00  -0.00   0.00    -0.03  -0.07   0.00    -0.05   0.00  -0.07
    51   6    -0.00  -0.00  -0.00     0.01  -0.06   0.01    -0.08   0.01  -0.10
    52   6    -0.00  -0.01  -0.00     0.02  -0.04   0.03    -0.12   0.05  -0.12
    53   6    -0.00  -0.01  -0.01     0.02  -0.04   0.03    -0.12   0.08  -0.13
    54   6    -0.00  -0.01  -0.01     0.02  -0.02   0.03    -0.09   0.08  -0.10
    55   6     0.00   0.00  -0.01     0.01   0.04   0.00    -0.08   0.07  -0.06
    56   6     0.00   0.00  -0.01     0.04   0.07   0.01     0.11  -0.00   0.09
    57   6    -0.00  -0.00  -0.01     0.04   0.07  -0.01    -0.11   0.00   0.09
    58   6     0.00   0.01  -0.01     0.02  -0.04  -0.03     0.12  -0.08  -0.13
    59   6    -0.01  -0.00   0.01     0.08   0.12   0.02     0.06  -0.04  -0.00
    60   6     0.01   0.00   0.01     0.08   0.12  -0.02    -0.06   0.04  -0.00
    61   6     0.03  -0.01   0.04     0.18   0.15  -0.00     0.01   0.01  -0.01
    62   6    -0.03   0.01   0.04     0.18   0.15   0.00    -0.01  -0.01  -0.01
    63   6     0.01  -0.04   0.01    -0.07   0.06   0.01    -0.01   0.02   0.00
    64   1    -0.10  -0.32  -0.27    -0.20   0.20  -0.08    -0.02   0.02  -0.01
    65   1    -0.25   0.03   0.28    -0.07  -0.10   0.10    -0.02   0.02   0.01
    66   1     0.34   0.11  -0.02    -0.17   0.01   0.02    -0.00   0.01   0.01
    67   6    -0.01   0.04   0.01    -0.07   0.06  -0.01     0.01  -0.02   0.00
    68   1     0.10   0.32  -0.27    -0.20   0.20   0.08     0.02  -0.02  -0.01
    69   1    -0.34  -0.11  -0.02    -0.17   0.01  -0.02     0.00  -0.01   0.01
    70   1     0.25  -0.03   0.28    -0.07  -0.10  -0.10     0.02  -0.02   0.01
    71   6    -0.05   0.01   0.06     0.17   0.12  -0.02     0.01  -0.00  -0.02
    72   1    -0.04   0.03   0.13     0.15   0.07  -0.07     0.02   0.03  -0.02
    73   1    -0.12   0.00   0.05     0.23   0.14  -0.01     0.01  -0.00  -0.02
    74   6     0.05  -0.01   0.06     0.17   0.12   0.02    -0.01   0.00  -0.02
    75   1     0.12  -0.00   0.05     0.23   0.14   0.01    -0.01   0.00  -0.02
    76   1     0.04  -0.03   0.13     0.15   0.07   0.07    -0.02  -0.03  -0.02
                     10                     11                     12
                     A'                     A"                     A'
 Frequencies --    250.0649               253.0061               257.4094
 Red. masses --     11.7417                10.1940                11.8611
 Frc consts  --      0.4326                 0.3845                 0.4630
 IR Inten    --      0.0000                 0.0000                 0.0000
  Atom  AN      X      Y      Z        X      Y      Z        X      Y      Z
     1   6     0.07  -0.05   0.06    -0.02  -0.07  -0.05    -0.01  -0.10  -0.02
     2   6     0.07  -0.05   0.06    -0.06  -0.05   0.03    -0.08  -0.06   0.01
     3   6     0.14  -0.06   0.01    -0.05  -0.02   0.03    -0.13  -0.06   0.02
     4   6     0.16  -0.10   0.00    -0.00   0.00   0.01    -0.10  -0.08   0.00
     5   6     0.14  -0.11  -0.00    -0.00   0.00  -0.04    -0.01  -0.13  -0.00
     6   6     0.09  -0.10   0.01     0.00  -0.05  -0.05     0.02  -0.15  -0.02
     7   6     0.03   0.00   0.14    -0.03  -0.11  -0.08     0.02  -0.07  -0.05
     8   6     0.00   0.00   0.21    -0.05  -0.09  -0.01    -0.02  -0.03  -0.01
     9   6     0.01  -0.02   0.15    -0.08  -0.07   0.07    -0.07  -0.03   0.03
    10   6    -0.02  -0.03   0.14    -0.08  -0.10   0.13    -0.10  -0.01   0.02
    11   6     0.09  -0.03   0.01    -0.02  -0.02   0.06    -0.20  -0.06   0.02
    12   6     0.14  -0.06  -0.01     0.05   0.02   0.03    -0.13  -0.06  -0.02
    13   6     0.07  -0.05  -0.06     0.06   0.05   0.03    -0.08  -0.06  -0.01
    14   6     0.07  -0.05  -0.06     0.02   0.07  -0.05    -0.01  -0.10   0.02
    15   6     0.09  -0.10  -0.01    -0.00   0.05  -0.05     0.02  -0.15   0.02
    16   6     0.05  -0.07  -0.01     0.01   0.04  -0.07     0.04  -0.19   0.02
    17   6     0.05  -0.07   0.01    -0.01  -0.04  -0.07     0.04  -0.19  -0.02
    18   6     0.02  -0.03   0.05    -0.03  -0.08  -0.09     0.06  -0.12  -0.03
    19   6     0.02   0.02   0.10    -0.05  -0.12  -0.12     0.04  -0.08  -0.03
    20   6     0.00   0.00   0.21    -0.05  -0.09  -0.01     0.02   0.03  -0.01
    21   6    -0.01   0.02   0.14    -0.08  -0.08  -0.08     0.07   0.02   0.03
    22   6     0.01   0.02   0.10    -0.08  -0.10  -0.12     0.10   0.01   0.02
    23   6    -0.03   0.01   0.05    -0.06  -0.06  -0.09     0.15   0.03   0.03
    24   6    -0.01  -0.03   0.01    -0.03  -0.04  -0.09     0.10  -0.04   0.00
    25   6    -0.01  -0.03  -0.01     0.03   0.04  -0.09     0.10  -0.04  -0.00
    26   6     0.02  -0.03  -0.05     0.03   0.08  -0.09     0.06  -0.12   0.03
    27   6     0.02   0.02  -0.10     0.05   0.12  -0.12     0.04  -0.08   0.03
    28   6     0.03   0.00  -0.14     0.03   0.11  -0.08     0.02  -0.07   0.05
    29   6     0.09  -0.03  -0.01     0.02   0.02   0.06    -0.20  -0.06  -0.02
    30   6    -0.03   0.00  -0.15     0.03   0.11   0.07    -0.02   0.07   0.05
    31   6    -0.02  -0.02  -0.13     0.06   0.12   0.13    -0.05   0.08   0.03
    32   6    -0.03   0.03  -0.07     0.03   0.09   0.11    -0.06   0.11   0.03
    33   6    -0.07   0.08  -0.01     0.02   0.03   0.06    -0.04   0.19   0.02
    34   6    -0.11   0.10  -0.01    -0.00   0.05   0.03    -0.02   0.14   0.03
    35   6    -0.07   0.04  -0.06     0.06   0.06  -0.05     0.08   0.05  -0.00
    36   6    -0.01   0.02  -0.14     0.08   0.08  -0.08     0.07   0.02  -0.03
    37   6     0.00   0.00  -0.21     0.05   0.09  -0.01     0.02   0.03   0.01
    38   6     0.00   0.00  -0.21     0.05   0.09  -0.01    -0.02  -0.03   0.01
    39   6     0.01  -0.02  -0.15     0.08   0.07   0.07    -0.07  -0.03  -0.03
    40   6    -0.02  -0.03  -0.14     0.08   0.10   0.13    -0.10  -0.01  -0.02
    41   6    -0.03   0.03   0.07    -0.03  -0.09   0.11    -0.06   0.11  -0.03
    42   6    -0.07   0.08   0.01    -0.02  -0.03   0.06    -0.04   0.19  -0.02
    43   6    -0.11   0.10   0.01     0.00  -0.05   0.03    -0.02   0.14  -0.03
    44   6    -0.16   0.10  -0.00     0.00  -0.00   0.01     0.02   0.13   0.00
    45   6    -0.16   0.07  -0.00     0.00  -0.00  -0.04     0.11   0.07  -0.00
    46   6    -0.13   0.04  -0.01     0.05   0.02  -0.05     0.14   0.06  -0.02
    47   6     0.01   0.02  -0.10     0.08   0.10  -0.12     0.10   0.01  -0.02
    48   6    -0.03   0.01  -0.05     0.06   0.06  -0.09     0.15   0.03  -0.03
    49   6    -0.08   0.02  -0.01     0.03   0.03  -0.07     0.20   0.06  -0.01
    50   6    -0.08   0.02   0.01    -0.03  -0.03  -0.07     0.20   0.06   0.01
    51   6    -0.13   0.04   0.01    -0.05  -0.02  -0.05     0.14   0.06   0.02
    52   6    -0.07   0.04   0.06    -0.06  -0.06  -0.05     0.08   0.05   0.00
    53   6    -0.08   0.05   0.06    -0.02  -0.08   0.03     0.01   0.10  -0.02
    54   6    -0.03   0.00   0.15    -0.03  -0.11   0.07    -0.02   0.07  -0.05
    55   6    -0.02  -0.02   0.13    -0.06  -0.12   0.13    -0.05   0.08  -0.03
    56   6     0.02  -0.02  -0.07     0.07   0.05   0.10    -0.15  -0.02  -0.03
    57   6     0.02  -0.02   0.07    -0.07  -0.05   0.10    -0.15  -0.02   0.03
    58   6    -0.08   0.05  -0.06     0.02   0.08   0.03     0.01   0.10   0.02
    59   6     0.01   0.02  -0.02     0.04   0.05   0.11    -0.08   0.03  -0.00
    60   6     0.01   0.02   0.02    -0.04  -0.05   0.11    -0.08   0.03   0.00
    61   6     0.04   0.03  -0.00    -0.03  -0.04   0.05     0.01   0.02  -0.00
    62   6     0.04   0.03   0.00     0.03   0.04   0.05     0.01   0.02   0.00
    63   6    -0.02   0.01   0.01     0.04  -0.04   0.01    -0.01   0.01   0.00
    64   1    -0.05   0.06  -0.00     0.10  -0.06   0.08    -0.03   0.03  -0.01
    65   1    -0.01  -0.03   0.02     0.09  -0.03  -0.05    -0.01  -0.01   0.01
    66   1    -0.06  -0.01   0.01     0.01  -0.03  -0.02    -0.02   0.01   0.00
    67   6    -0.02   0.01  -0.01    -0.04   0.04   0.01    -0.01   0.01  -0.00
    68   1    -0.05   0.06   0.00    -0.10   0.06   0.08    -0.03   0.03   0.01
    69   1    -0.06  -0.01  -0.01    -0.01   0.03  -0.02    -0.02   0.01  -0.00
    70   1    -0.01  -0.03  -0.02    -0.09   0.03  -0.05    -0.01  -0.01  -0.01
    71   6     0.02   0.02   0.00     0.09   0.06   0.05    -0.02  -0.00  -0.01
    72   1     0.02   0.00   0.01     0.07   0.06  -0.04    -0.03  -0.05  -0.02
    73   1     0.01   0.02   0.00     0.17   0.08   0.05    -0.01   0.00  -0.00
    74   6     0.02   0.02  -0.00    -0.09  -0.06   0.05    -0.02  -0.00   0.01
    75   1     0.01   0.02  -0.00    -0.17  -0.08   0.05    -0.01   0.00   0.00
    76   1     0.02   0.00  -0.01    -0.07  -0.06  -0.04    -0.03  -0.05   0.02
                     13                     14                     15
                     A'                     A"                     A"
 Frequencies --    309.1164               329.3905               331.2731
 Red. masses --      7.2149                 6.1332                 7.9024
 Frc consts  --      0.4062                 0.3921                 0.5110
 IR Inten    --      0.0000                 0.0000                 0.0000
  Atom  AN      X      Y      Z        X      Y      Z        X      Y      Z
     1   6     0.04  -0.07  -0.05    -0.05   0.03   0.03     0.08   0.00  -0.08
     2   6     0.01  -0.06  -0.03     0.01  -0.01  -0.06     0.03   0.05  -0.05
     3   6    -0.01  -0.07  -0.01     0.04  -0.02  -0.07    -0.02   0.04  -0.02
     4   6     0.04  -0.07  -0.00    -0.00  -0.00  -0.05     0.00   0.00  -0.05
     5   6     0.08  -0.09   0.00    -0.00   0.00   0.01     0.00   0.00  -0.07
     6   6     0.06  -0.05  -0.02    -0.05   0.05   0.04     0.05  -0.02  -0.08
     7   6     0.03  -0.04  -0.08    -0.04   0.05   0.04     0.07  -0.01  -0.06
     8   6     0.01  -0.03  -0.06    -0.01   0.02  -0.05     0.03   0.00  -0.06
     9   6    -0.01  -0.04  -0.01     0.03   0.00  -0.08    -0.00   0.04  -0.02
    10   6    -0.02  -0.05   0.01     0.04  -0.01  -0.04    -0.08   0.02   0.05
    11   6    -0.06  -0.07   0.01     0.05  -0.01  -0.06    -0.06   0.02   0.04
    12   6    -0.01  -0.07   0.01    -0.04   0.02  -0.07     0.02  -0.04  -0.02
    13   6     0.01  -0.06   0.03    -0.01   0.01  -0.06    -0.03  -0.05  -0.05
    14   6     0.04  -0.07   0.05     0.05  -0.03   0.03    -0.08  -0.00  -0.08
    15   6     0.06  -0.05   0.02     0.05  -0.05   0.04    -0.05   0.02  -0.08
    16   6     0.03   0.05   0.00     0.03  -0.05   0.08    -0.04   0.03  -0.03
    17   6     0.03   0.05  -0.00    -0.03   0.05   0.08     0.04  -0.03  -0.03
    18   6     0.05   0.11  -0.00    -0.02   0.09   0.09     0.05  -0.03   0.02
    19   6     0.02   0.02  -0.05    -0.03   0.08   0.09     0.09  -0.02   0.02
    20   6    -0.01  -0.02  -0.06    -0.01   0.02  -0.06     0.02  -0.01  -0.04
    21   6    -0.05   0.00  -0.09    -0.03   0.03  -0.06     0.07  -0.04   0.04
    22   6    -0.00   0.02  -0.06    -0.03   0.04   0.02     0.11  -0.01   0.09
    23   6     0.04   0.10  -0.01    -0.03   0.02   0.02     0.11   0.01   0.10
    24   6     0.08   0.17   0.01    -0.01   0.04   0.06     0.06  -0.00   0.07
    25   6     0.08   0.17  -0.01     0.01  -0.04   0.06    -0.06   0.00   0.07
    26   6     0.05   0.11   0.00     0.02  -0.09   0.09    -0.05   0.03   0.02
    27   6     0.02   0.02   0.05     0.03  -0.08   0.09    -0.09   0.02   0.02
    28   6     0.03  -0.04   0.08     0.04  -0.05   0.04    -0.07   0.01  -0.06
    29   6    -0.06  -0.07  -0.01    -0.05   0.01  -0.06     0.06  -0.02   0.04
    30   6    -0.02  -0.04   0.02    -0.02  -0.00  -0.02     0.04  -0.01  -0.08
    31   6    -0.02  -0.05   0.00    -0.02   0.05   0.04     0.06  -0.03  -0.03
    32   6    -0.01  -0.01   0.01    -0.01   0.13   0.09     0.08  -0.03  -0.02
    33   6    -0.03  -0.10  -0.00    -0.02   0.05   0.04     0.07  -0.05  -0.06
    34   6    -0.03  -0.07   0.01    -0.03   0.01  -0.02     0.07  -0.03  -0.08
    35   6    -0.07  -0.01   0.06     0.03  -0.04  -0.08    -0.04   0.06   0.02
    36   6    -0.05   0.00   0.09     0.03  -0.03  -0.06    -0.07   0.04   0.04
    37   6    -0.01  -0.02   0.06     0.01  -0.02  -0.06    -0.02   0.01  -0.04
    38   6     0.01  -0.03   0.06     0.01  -0.02  -0.05    -0.03  -0.00  -0.06
    39   6    -0.01  -0.04   0.01    -0.03  -0.00  -0.08     0.00  -0.04  -0.02
    40   6    -0.02  -0.05  -0.01    -0.04   0.01  -0.04     0.08  -0.02   0.05
    41   6    -0.01  -0.01  -0.01     0.01  -0.13   0.09    -0.08   0.03  -0.02
    42   6    -0.03  -0.10   0.00     0.02  -0.05   0.04    -0.07   0.05  -0.06
    43   6    -0.03  -0.07  -0.01     0.03  -0.01  -0.02    -0.07   0.03  -0.08
    44   6    -0.06  -0.03  -0.00    -0.00  -0.00  -0.04     0.00   0.00  -0.05
    45   6    -0.11   0.02   0.00    -0.00  -0.00  -0.07     0.00   0.00   0.00
    46   6    -0.08   0.03   0.03     0.03  -0.02  -0.07    -0.06   0.04   0.04
    47   6    -0.00   0.02   0.06     0.03  -0.04   0.02    -0.11   0.01   0.09
    48   6     0.04   0.10   0.01     0.03  -0.02   0.02    -0.11  -0.01   0.10
    49   6    -0.01   0.05   0.01     0.03  -0.01  -0.03    -0.06   0.01   0.08
    50   6    -0.01   0.05  -0.01    -0.03   0.01  -0.03     0.06  -0.01   0.08
    51   6    -0.08   0.03  -0.03    -0.03   0.02  -0.07     0.06  -0.04   0.04
    52   6    -0.07  -0.01  -0.06    -0.03   0.04  -0.08     0.04  -0.06   0.02
    53   6    -0.04  -0.04  -0.03     0.01   0.02  -0.04    -0.05  -0.01  -0.06
    54   6    -0.02  -0.04  -0.02     0.02   0.00  -0.02    -0.04   0.01  -0.08
    55   6    -0.02  -0.05  -0.00     0.02  -0.05   0.04    -0.06   0.03  -0.03
    56   6    -0.02  -0.03  -0.01    -0.05   0.01  -0.02     0.14   0.01   0.10
    57   6    -0.02  -0.03   0.01     0.05  -0.01  -0.02    -0.14  -0.01   0.10
    58   6    -0.04  -0.04   0.03    -0.01  -0.02  -0.04     0.05   0.01  -0.06
    59   6     0.01   0.04   0.02     0.01   0.07   0.07     0.11   0.01   0.08
    60   6     0.01   0.04  -0.02    -0.01  -0.07   0.07    -0.11  -0.01   0.08
    61   6     0.16   0.12   0.00    -0.07  -0.05   0.10    -0.04  -0.04   0.08
    62   6     0.16   0.12  -0.00     0.07   0.05   0.10     0.04   0.04   0.08
    63   6    -0.07   0.12   0.08     0.06  -0.10  -0.00     0.05  -0.08  -0.00
    64   1    -0.19   0.29   0.03     0.16  -0.23   0.05     0.11  -0.18   0.03
    65   1    -0.08   0.02   0.15     0.12  -0.13  -0.06     0.09  -0.12  -0.03
    66   1    -0.16   0.03   0.15     0.06  -0.02  -0.13     0.04  -0.02  -0.11
    67   6    -0.07   0.12  -0.08    -0.06   0.10  -0.00    -0.05   0.08  -0.00
    68   1    -0.19   0.29  -0.03    -0.16   0.23   0.05    -0.11   0.18   0.03
    69   1    -0.16   0.03  -0.15    -0.06   0.02  -0.13    -0.04   0.02  -0.11
    70   1    -0.08   0.02  -0.15    -0.12   0.13  -0.06    -0.09   0.12  -0.03
    71   6     0.07   0.07  -0.00     0.14   0.04   0.03     0.14   0.05   0.03
    72   1     0.06  -0.01   0.00     0.10   0.00  -0.16     0.11   0.07  -0.12
    73   1     0.08   0.09  -0.00     0.31   0.03   0.05     0.26   0.04   0.04
    74   6     0.07   0.07   0.00    -0.14  -0.04   0.03    -0.14  -0.05   0.03
    75   1     0.08   0.09   0.00    -0.31  -0.03   0.05    -0.26  -0.04   0.04
    76   1     0.06  -0.01  -0.00    -0.10  -0.00  -0.16    -0.11  -0.07  -0.12
                     16                     17                     18
                     A'                     A'                     A"
 Frequencies --    349.7019               353.0854               355.4935
 Red. masses --      8.9236                11.3234                11.9956
 Frc consts  --      0.6430                 0.8317                 0.8932
 IR Inten    --      0.0000                 0.0000                 0.0000
  Atom  AN      X      Y      Z        X      Y      Z        X      Y      Z
     1   6    -0.02   0.01  -0.00     0.07  -0.03   0.06     0.15  -0.10  -0.07
     2   6     0.04  -0.02   0.03     0.07  -0.02   0.03     0.18  -0.08  -0.08
     3   6     0.11  -0.06  -0.00     0.07  -0.01   0.02     0.17  -0.03  -0.08
     4   6     0.08  -0.08  -0.00     0.18  -0.07   0.00     0.00  -0.00  -0.05
     5   6    -0.08   0.01  -0.00     0.19  -0.12   0.00     0.00  -0.00  -0.05
     6   6    -0.11   0.05   0.01     0.09  -0.06   0.02     0.09  -0.11  -0.07
     7   6     0.00   0.03  -0.05     0.02  -0.01   0.15     0.06  -0.00   0.09
     8   6     0.06   0.04  -0.00     0.04  -0.05   0.08     0.01   0.01   0.23
     9   6     0.04   0.01   0.09     0.02  -0.02   0.06     0.05  -0.04   0.08
    10   6    -0.03  -0.02   0.17    -0.05   0.01  -0.01    -0.01  -0.04   0.05
    11   6     0.10  -0.05   0.01    -0.14  -0.01   0.02     0.08  -0.00  -0.06
    12   6     0.11  -0.06   0.00     0.07  -0.01  -0.02    -0.17   0.03  -0.08
    13   6     0.04  -0.02  -0.03     0.07  -0.02  -0.03    -0.18   0.08  -0.08
    14   6    -0.02   0.01   0.00     0.07  -0.03  -0.06    -0.15   0.10  -0.07
    15   6    -0.11   0.05  -0.01     0.09  -0.06  -0.02    -0.09   0.11  -0.07
    16   6    -0.12   0.10  -0.00     0.00   0.08  -0.03    -0.02   0.05  -0.06
    17   6    -0.12   0.10   0.00     0.00   0.08   0.03     0.02  -0.05  -0.06
    18   6    -0.07   0.04  -0.05    -0.05   0.10   0.10     0.00  -0.01  -0.01
    19   6    -0.02   0.00  -0.10    -0.02   0.06   0.13     0.02   0.04   0.05
    20   6     0.06   0.04  -0.04     0.04  -0.05  -0.06    -0.00  -0.00   0.23
    21   6     0.05   0.00  -0.10     0.02  -0.02  -0.04    -0.04   0.04   0.08
    22   6    -0.02  -0.02  -0.14    -0.05   0.01   0.02     0.01   0.03   0.05
    23   6    -0.02  -0.04  -0.09    -0.16  -0.00  -0.03    -0.03  -0.01  -0.01
    24   6    -0.05   0.00  -0.02    -0.13   0.03   0.01    -0.01  -0.01  -0.01
    25   6    -0.05   0.00   0.02    -0.13   0.03  -0.01     0.01   0.01  -0.01
    26   6    -0.07   0.04   0.05    -0.05   0.10  -0.10    -0.00   0.01  -0.01
    27   6    -0.02   0.00   0.10    -0.02   0.06  -0.13    -0.02  -0.04   0.05
    28   6     0.00   0.03   0.05     0.02  -0.01  -0.15    -0.06   0.00   0.09
    29   6     0.10  -0.05  -0.01    -0.14  -0.01  -0.02    -0.08   0.00  -0.06
    30   6     0.02   0.02  -0.03     0.02  -0.00   0.15     0.06  -0.00   0.09
    31   6    -0.02  -0.01  -0.12    -0.02   0.06   0.14     0.03   0.05   0.06
    32   6    -0.07   0.03  -0.07    -0.05   0.10   0.12     0.01  -0.00  -0.01
    33   6    -0.11   0.13   0.01     0.01   0.07   0.03     0.04  -0.06  -0.07
    34   6    -0.06   0.03   0.01     0.10  -0.07   0.02     0.10  -0.12  -0.08
    35   6     0.06  -0.04   0.03     0.06  -0.01   0.03     0.18  -0.08  -0.08
    36   6     0.05   0.00   0.10     0.02  -0.02   0.04     0.04  -0.04   0.08
    37   6     0.06   0.04   0.04     0.04  -0.05   0.06     0.00   0.00   0.23
    38   6     0.06   0.04   0.00     0.04  -0.05  -0.08    -0.01  -0.01   0.23
    39   6     0.04   0.01  -0.09     0.02  -0.02  -0.06    -0.05   0.04   0.08
    40   6    -0.03  -0.02  -0.17    -0.05   0.01   0.01     0.01   0.04   0.05
    41   6    -0.07   0.03   0.07    -0.05   0.10  -0.12    -0.01   0.00  -0.01
    42   6    -0.11   0.13  -0.01     0.01   0.07  -0.03    -0.04   0.06  -0.07
    43   6    -0.06   0.03  -0.01     0.10  -0.07  -0.02    -0.10   0.12  -0.08
    44   6    -0.01  -0.03  -0.00     0.20  -0.11   0.00     0.00  -0.00  -0.05
    45   6     0.14  -0.11   0.00     0.17  -0.06   0.00     0.00  -0.00  -0.05
    46   6     0.13  -0.08   0.00     0.05  -0.00   0.02     0.16  -0.02  -0.07
    47   6    -0.02  -0.02   0.14    -0.05   0.01  -0.02    -0.01  -0.03   0.05
    48   6    -0.02  -0.04   0.09    -0.16  -0.00   0.03     0.03   0.01  -0.01
    49   6     0.07  -0.06   0.01    -0.15  -0.00   0.02     0.07   0.01  -0.06
    50   6     0.07  -0.06  -0.01    -0.15  -0.00  -0.02    -0.07  -0.01  -0.06
    51   6     0.13  -0.08  -0.00     0.05  -0.00  -0.02    -0.16   0.02  -0.07
    52   6     0.06  -0.04  -0.03     0.06  -0.01  -0.03    -0.18   0.08  -0.08
    53   6     0.01  -0.00   0.00     0.06  -0.02  -0.06    -0.16   0.11  -0.08
    54   6     0.02   0.02   0.03     0.02  -0.00  -0.15    -0.06   0.00   0.09
    55   6    -0.02  -0.01   0.12    -0.02   0.06  -0.14    -0.03  -0.05   0.06
    56   6    -0.03  -0.04  -0.12    -0.16  -0.00  -0.04    -0.03   0.00  -0.01
    57   6    -0.03  -0.04   0.12    -0.16  -0.00   0.04     0.03  -0.00  -0.01
    58   6     0.01  -0.00  -0.00     0.06  -0.02   0.06     0.16  -0.11  -0.08
    59   6    -0.05   0.00  -0.03    -0.12   0.03   0.01     0.00   0.00  -0.00
    60   6    -0.05   0.00   0.03    -0.12   0.03  -0.01    -0.00  -0.00  -0.00
    61   6     0.08  -0.01   0.00    -0.00   0.03  -0.00    -0.00  -0.00   0.00
    62   6     0.08  -0.01  -0.00    -0.00   0.03   0.00     0.00   0.00   0.00
    63   6    -0.03   0.02   0.09     0.00  -0.00  -0.04     0.00  -0.00   0.00
    64   1    -0.09   0.14   0.08     0.00  -0.03  -0.06     0.00  -0.00   0.00
    65   1    -0.03   0.01   0.11     0.01  -0.04  -0.03     0.00   0.00  -0.00
    66   1    -0.08  -0.04   0.15     0.00   0.01  -0.07     0.00  -0.00   0.00
    67   6    -0.03   0.02  -0.09     0.00  -0.00   0.04    -0.00   0.00   0.00
    68   1    -0.09   0.14  -0.08     0.00  -0.03   0.06    -0.00   0.00   0.00
    69   1    -0.08  -0.04  -0.15     0.00   0.01   0.07    -0.00   0.00   0.00
    70   1    -0.03   0.01  -0.11     0.01  -0.04   0.03    -0.00  -0.00  -0.00
    71   6    -0.05  -0.03   0.05    -0.03  -0.01  -0.03     0.00   0.00   0.00
    72   1    -0.04  -0.09   0.15    -0.05  -0.07  -0.10     0.00   0.00   0.01
    73   1    -0.16  -0.03   0.04     0.05  -0.00  -0.03    -0.01  -0.00   0.00
    74   6    -0.05  -0.03  -0.05    -0.03  -0.01   0.03    -0.00  -0.00   0.00
    75   1    -0.16  -0.03  -0.04     0.05  -0.00   0.03     0.01   0.00   0.00
    76   1    -0.04  -0.09  -0.15    -0.05  -0.07   0.10    -0.00  -0.00   0.01
                     19                     20                     21
                     A"                     A'                     A'
 Frequencies --    359.9549               360.1311               361.7571
 Red. masses --     11.9484                 3.5549                10.9035
 Frc consts  --      0.9121                 0.2716                 0.8407
 IR Inten    --      0.0000                 0.0000                 0.0000
  Atom  AN      X      Y      Z        X      Y      Z        X      Y      Z
     1   6    -0.04  -0.16   0.01     0.01   0.02   0.01     0.02  -0.02  -0.02
     2   6    -0.11  -0.12  -0.03     0.02   0.02  -0.02    -0.05   0.02   0.03
     3   6    -0.07  -0.06  -0.09     0.01   0.04  -0.01     0.04   0.08  -0.02
     4   6     0.00   0.00  -0.06     0.00   0.06   0.00     0.10   0.12   0.00
     5   6     0.00   0.00   0.04     0.00   0.06  -0.00     0.11   0.11  -0.00
     6   6    -0.02  -0.10   0.08     0.01   0.04   0.01     0.09   0.08   0.02
     7   6    -0.02  -0.14  -0.02    -0.00  -0.02   0.03    -0.03  -0.13  -0.04
     8   6    -0.05  -0.08   0.01    -0.01  -0.03  -0.01    -0.11  -0.13   0.01
     9   6    -0.11  -0.08   0.03     0.01  -0.01  -0.05    -0.14  -0.07   0.06
    10   6    -0.12  -0.03  -0.01    -0.00  -0.02  -0.04    -0.09  -0.09   0.08
    11   6    -0.05  -0.04  -0.15    -0.00   0.03  -0.01     0.08   0.08  -0.01
    12   6     0.07   0.06  -0.09     0.01   0.04   0.01     0.04   0.08   0.02
    13   6     0.11   0.12  -0.03     0.02   0.02   0.02    -0.05   0.02  -0.03
    14   6     0.04   0.16   0.01     0.01   0.02  -0.01     0.02  -0.02   0.02
    15   6     0.02   0.10   0.08     0.01   0.04  -0.01     0.09   0.08  -0.02
    16   6     0.01   0.07   0.15     0.02   0.01  -0.00     0.07   0.13  -0.02
    17   6    -0.01  -0.07   0.15     0.02   0.01   0.00     0.07   0.13   0.02
    18   6     0.01  -0.09   0.08    -0.01  -0.03   0.02     0.03   0.02   0.02
    19   6     0.02  -0.11   0.03    -0.00  -0.01   0.05    -0.06  -0.11  -0.07
    20   6     0.05   0.08   0.01    -0.01  -0.03   0.01    -0.10  -0.13   0.00
    21   6     0.11   0.08   0.02     0.01  -0.01   0.05    -0.14  -0.08  -0.05
    22   6     0.12   0.04  -0.00     0.00  -0.01   0.05    -0.10  -0.10  -0.07
    23   6     0.10   0.03  -0.06    -0.02  -0.01   0.03    -0.01   0.00   0.01
    24   6     0.02  -0.01   0.01    -0.04  -0.05   0.00     0.05   0.05   0.01
    25   6    -0.02   0.01   0.01    -0.04  -0.05  -0.00     0.05   0.05  -0.01
    26   6    -0.01   0.09   0.08    -0.01  -0.03  -0.02     0.03   0.02  -0.02
    27   6    -0.02   0.11   0.03    -0.00  -0.01  -0.05    -0.06  -0.11   0.07
    28   6     0.02   0.14  -0.02    -0.00  -0.02  -0.03    -0.03  -0.13   0.04
    29   6     0.05   0.04  -0.15    -0.00   0.03   0.01     0.08   0.08   0.01
    30   6    -0.01  -0.14  -0.03    -0.00  -0.02   0.02    -0.02  -0.14  -0.06
    31   6     0.03  -0.11   0.03    -0.00  -0.02   0.03    -0.05  -0.11  -0.08
    32   6     0.02  -0.07   0.09    -0.00  -0.03   0.01     0.02   0.02   0.01
    33   6    -0.01  -0.06   0.15     0.02   0.01   0.00     0.06   0.16   0.02
    34   6    -0.02  -0.10   0.07     0.02   0.03   0.01     0.09   0.09   0.02
    35   6    -0.10  -0.12  -0.04     0.02   0.01  -0.02    -0.03   0.01   0.01
    36   6    -0.11  -0.08   0.02     0.01  -0.01  -0.05    -0.14  -0.08   0.05
    37   6    -0.05  -0.08   0.01    -0.01  -0.03  -0.01    -0.10  -0.13  -0.00
    38   6     0.05   0.08   0.01    -0.01  -0.03   0.01    -0.11  -0.13  -0.01
    39   6     0.11   0.08   0.03     0.01  -0.01   0.05    -0.14  -0.07  -0.06
    40   6     0.12   0.03  -0.01    -0.00  -0.02   0.04    -0.09  -0.09  -0.08
    41   6    -0.02   0.07   0.09    -0.00  -0.03  -0.01     0.02   0.02  -0.01
    42   6     0.01   0.06   0.15     0.02   0.01  -0.00     0.06   0.16  -0.02
    43   6     0.02   0.10   0.07     0.02   0.03  -0.01     0.09   0.09  -0.02
    44   6     0.00   0.00   0.04     0.01   0.05  -0.00     0.12   0.11  -0.00
    45   6     0.00   0.00  -0.06     0.02   0.05   0.00     0.12   0.11   0.00
    46   6    -0.07  -0.06  -0.10     0.01   0.03  -0.01     0.05   0.08  -0.03
    47   6    -0.12  -0.04  -0.00     0.00  -0.01  -0.05    -0.10  -0.10   0.07
    48   6    -0.10  -0.03  -0.06    -0.02  -0.01  -0.03    -0.01   0.00  -0.01
    49   6    -0.05  -0.04  -0.15    -0.00   0.03  -0.01     0.06   0.07  -0.01
    50   6     0.05   0.04  -0.15    -0.00   0.03   0.01     0.06   0.07   0.01
    51   6     0.07   0.06  -0.10     0.01   0.03   0.01     0.05   0.08   0.03
    52   6     0.10   0.12  -0.04     0.02   0.01   0.02    -0.03   0.01  -0.01
    53   6     0.04   0.16   0.00     0.01   0.01  -0.00     0.03  -0.02   0.04
    54   6     0.01   0.14  -0.03    -0.00  -0.02  -0.02    -0.02  -0.14   0.06
    55   6    -0.03   0.11   0.03    -0.00  -0.02  -0.03    -0.05  -0.11   0.08
    56   6     0.08   0.02  -0.07    -0.02  -0.01   0.02    -0.00   0.00   0.01
    57   6    -0.08  -0.02  -0.07    -0.02  -0.01  -0.02    -0.00   0.00  -0.01
    58   6    -0.04  -0.16   0.00     0.01   0.01   0.00     0.03  -0.02  -0.04
    59   6     0.01   0.00   0.01    -0.02  -0.03   0.01     0.02   0.01   0.01
    60   6    -0.01  -0.00   0.01    -0.02  -0.03  -0.01     0.02   0.01  -0.01
    61   6     0.00  -0.00   0.00     0.09  -0.06   0.00    -0.06  -0.00  -0.00
    62   6    -0.00   0.00   0.00     0.09  -0.06  -0.00    -0.06  -0.00   0.00
    63   6    -0.00   0.00   0.01    -0.04   0.06   0.21     0.02  -0.02  -0.06
    64   1    -0.01   0.01   0.01    -0.12   0.24   0.20     0.06  -0.10  -0.05
    65   1    -0.00   0.00   0.00    -0.07   0.13   0.22     0.02  -0.01  -0.08
    66   1    -0.01  -0.01   0.01    -0.06  -0.04   0.35     0.05   0.02  -0.11
    67   6     0.00  -0.00   0.01    -0.04   0.06  -0.21     0.02  -0.02   0.06
    68   1     0.01  -0.01   0.01    -0.12   0.24  -0.20     0.06  -0.10   0.05
    69   1     0.01   0.01   0.01    -0.06  -0.04  -0.35     0.05   0.02   0.11
    70   1     0.00  -0.00   0.00    -0.07   0.13  -0.22     0.02  -0.01   0.08
    71   6     0.01   0.01  -0.00    -0.03  -0.05   0.07     0.02   0.01  -0.02
    72   1     0.00   0.01  -0.02    -0.03  -0.12   0.18     0.02   0.06  -0.07
    73   1     0.03   0.01   0.00    -0.16  -0.02   0.06     0.07   0.01  -0.01
    74   6    -0.01  -0.01  -0.00    -0.03  -0.05  -0.07     0.02   0.01   0.02
    75   1    -0.03  -0.01   0.00    -0.16  -0.02  -0.06     0.07   0.01   0.01
    76   1    -0.00  -0.01  -0.02    -0.03  -0.12  -0.18     0.02   0.06   0.07
                     22                     23                     24
                     A"                     A'                     A'
 Frequencies --    366.0025               369.5234               371.4325
 Red. masses --     11.4250                 8.9161                11.6817
 Frc consts  --      0.9017                 0.7173                 0.9495
 IR Inten    --      0.0000                 0.0000                 0.0000
  Atom  AN      X      Y      Z        X      Y      Z        X      Y      Z
     1   6     0.07   0.11   0.10     0.05  -0.03   0.04     0.08  -0.06  -0.15
     2   6     0.05   0.11  -0.06     0.06  -0.01   0.04     0.08  -0.04  -0.15
     3   6     0.05   0.05  -0.07     0.02   0.10   0.02    -0.09  -0.03  -0.03
     4   6     0.00   0.00  -0.05    -0.08   0.11   0.00    -0.08   0.00   0.00
     5   6     0.00   0.00   0.10    -0.12   0.11  -0.00    -0.04   0.03  -0.00
     6   6     0.02   0.09   0.11    -0.08   0.01   0.04    -0.01   0.06  -0.04
     7   6     0.10   0.05   0.08     0.07  -0.10   0.02     0.06  -0.07  -0.15
     8   6     0.02   0.03   0.02     0.10  -0.10   0.00     0.08  -0.04  -0.12
     9   6    -0.00   0.11  -0.07     0.08  -0.04   0.01     0.09  -0.01  -0.14
    10   6    -0.08   0.12  -0.08     0.03  -0.01   0.01     0.01  -0.02  -0.04
    11   6    -0.00   0.05  -0.11     0.05   0.13  -0.00    -0.17  -0.07   0.01
    12   6    -0.05  -0.05  -0.07     0.02   0.10  -0.02    -0.09  -0.03   0.03
    13   6    -0.05  -0.11  -0.06     0.06  -0.01  -0.04     0.08  -0.04   0.15
    14   6    -0.07  -0.11   0.10     0.05  -0.03  -0.04     0.08  -0.06   0.15
    15   6    -0.02  -0.09   0.11    -0.08   0.01  -0.04    -0.01   0.06   0.04
    16   6    -0.05  -0.03   0.10    -0.09  -0.06  -0.01    -0.01   0.16  -0.00
    17   6     0.05   0.03   0.10    -0.09  -0.06   0.01    -0.01   0.16   0.00
    18   6     0.09  -0.02   0.04    -0.09  -0.06   0.01     0.00   0.09  -0.00
    19   6     0.14  -0.05   0.02     0.02  -0.07   0.00     0.03   0.01  -0.04
    20   6    -0.02  -0.03   0.04     0.11  -0.09  -0.00     0.08  -0.04   0.12
    21   6     0.00  -0.11  -0.05     0.09  -0.04  -0.01     0.09  -0.01   0.15
    22   6     0.08  -0.13  -0.08     0.05  -0.02   0.00     0.01  -0.02   0.03
    23   6     0.02  -0.10  -0.10     0.00   0.10   0.00    -0.07  -0.03  -0.00
    24   6     0.04  -0.04  -0.04    -0.10   0.05   0.00    -0.02   0.02  -0.00
    25   6    -0.04   0.04  -0.04    -0.10   0.05  -0.00    -0.02   0.02   0.00
    26   6    -0.09   0.02   0.04    -0.09  -0.06  -0.01     0.00   0.09   0.00
    27   6    -0.14   0.05   0.02     0.02  -0.07  -0.00     0.03   0.01   0.04
    28   6    -0.10  -0.05   0.08     0.07  -0.10  -0.02     0.06  -0.07   0.15
    29   6     0.00  -0.05  -0.11     0.05   0.13   0.00    -0.17  -0.07  -0.01
    30   6     0.10   0.05   0.10     0.06  -0.09   0.02     0.05  -0.07  -0.15
    31   6     0.13  -0.06   0.02     0.01  -0.05   0.02     0.02   0.01  -0.04
    32   6     0.08  -0.05   0.03    -0.08  -0.02   0.02    -0.01   0.07  -0.01
    33   6     0.04   0.02   0.10    -0.08  -0.07   0.00    -0.01   0.18   0.01
    34   6     0.02   0.08   0.11    -0.07  -0.02   0.04    -0.01   0.08  -0.04
    35   6     0.05   0.12  -0.04     0.05  -0.02   0.04     0.09  -0.04  -0.15
    36   6    -0.00   0.11  -0.05     0.09  -0.04   0.01     0.09  -0.01  -0.15
    37   6     0.02   0.03   0.04     0.11  -0.09   0.00     0.08  -0.04  -0.12
    38   6    -0.02  -0.03   0.02     0.10  -0.10  -0.00     0.08  -0.04   0.12
    39   6     0.00  -0.11  -0.07     0.08  -0.04  -0.01     0.09  -0.01   0.14
    40   6     0.08  -0.12  -0.08     0.03  -0.01  -0.01     0.01  -0.02   0.04
    41   6    -0.08   0.05   0.03    -0.08  -0.02  -0.02    -0.01   0.07   0.01
    42   6    -0.04  -0.02   0.10    -0.08  -0.07  -0.00    -0.01   0.18  -0.01
    43   6    -0.02  -0.08   0.11    -0.07  -0.02  -0.04    -0.01   0.08   0.04
    44   6     0.00   0.00   0.10    -0.11   0.08  -0.00    -0.04   0.05  -0.00
    45   6     0.00   0.00  -0.05    -0.12   0.11   0.00    -0.06   0.01   0.00
    46   6     0.06   0.06  -0.07    -0.02   0.10   0.03    -0.07  -0.03  -0.04
    47   6    -0.08   0.13  -0.08     0.05  -0.02  -0.00     0.01  -0.02  -0.03
    48   6    -0.02   0.10  -0.10     0.00   0.10  -0.00    -0.07  -0.03   0.00
    49   6     0.01   0.06  -0.12     0.04   0.14  -0.00    -0.16  -0.07   0.00
    50   6    -0.01  -0.06  -0.12     0.04   0.14   0.00    -0.16  -0.07  -0.00
    51   6    -0.06  -0.06  -0.07    -0.02   0.10  -0.03    -0.07  -0.03   0.04
    52   6    -0.05  -0.12  -0.04     0.05  -0.02  -0.04     0.09  -0.04   0.15
    53   6    -0.07  -0.11   0.11     0.04  -0.05  -0.04     0.07  -0.06   0.15
    54   6    -0.10  -0.05   0.10     0.06  -0.09  -0.02     0.05  -0.07   0.15
    55   6    -0.13   0.06   0.02     0.01  -0.05  -0.02     0.02   0.01   0.04
    56   6     0.04  -0.08  -0.10    -0.03   0.08  -0.01    -0.06  -0.02   0.01
    57   6    -0.04   0.08  -0.10    -0.03   0.08   0.01    -0.06  -0.02  -0.01
    58   6     0.07   0.11   0.11     0.04  -0.05   0.04     0.07  -0.06  -0.15
    59   6     0.04  -0.04  -0.03    -0.11   0.05  -0.00    -0.01   0.01  -0.00
    60   6    -0.04   0.04  -0.03    -0.11   0.05   0.00    -0.01   0.01   0.00
    61   6     0.02   0.02   0.03     0.09   0.07  -0.00    -0.02   0.02  -0.00
    62   6    -0.02  -0.02   0.03     0.09   0.07   0.00    -0.02   0.02   0.00
    63   6     0.01  -0.02  -0.02     0.01  -0.06  -0.11     0.01  -0.01  -0.04
    64   1     0.01  -0.06  -0.04    -0.02  -0.05  -0.15     0.02  -0.04  -0.04
    65   1     0.02  -0.08  -0.00     0.05  -0.22  -0.07     0.01  -0.02  -0.04
    66   1    -0.01   0.01  -0.08    -0.08  -0.04  -0.19     0.01   0.02  -0.07
    67   6    -0.01   0.02  -0.02     0.01  -0.06   0.11     0.01  -0.01   0.04
    68   1    -0.01   0.06  -0.04    -0.02  -0.05   0.15     0.02  -0.04   0.04
    69   1     0.01  -0.01  -0.08    -0.08  -0.04   0.19     0.01   0.02   0.07
[...]
 004431,0.00007520,-0.00010070,0.00009094,0.00000240,-0.00001155,0.0000
 0410,-0.00000214,0.00000228,0.,0.,0.,0.,0.,0.,0.,0.,0.,0.00000120,0.,0
 .00000015,0.00000209,0.00000364,-0.00000450,0.00052687,0.00017633,0.00
 070978,0.00004745,-0.00003270,0.00005631,0.00021206,0.00039153,0.00050
 209,-0.00099880,-0.00036470,-0.00154848,-0.00026000,-0.00045982,0.0010
 3721,0.00013808,0.00015822,-0.00031546,-0.00000681,-0.00001468,-0.0000
 0598,0.00001399,0.00000708,-0.00000135,0.00002398,0.00002725,-0.000009
 27,-0.00003369,-0.00004787,0.00002704,0.00000856,0.00005077,-0.0000012
 3,-0.00017029,-0.00011383,0.00056472,0.02012416,0.00485113,-0.00820642
 ,0.00036801,0.00100948,-0.00258475,-0.00014755,-0.00013184,0.00025752,
 0.00015678,0.00015060,0.00005145,-0.00017987,-0.00001646,0.00013978,0.
 00005041,0.00000519,-0.00002348,0.00000051,0.,-0.00000006,0.,0.,0.,0.0
 0000531,0.00000247,-0.00000012,-0.00004236,-0.00000690,0.00000273,-0.0
 0001615,0.00003990,0.00000883,0.00019505,-0.00008117,-0.00000668,-0.00
 078306,0.00011707,0.00038742,-0.00071578,0.00089492,0.00068484,0.00269
 232,0.00036620,0.00071268,0.00022725,0.00026326,-0.00063331,-0.0191075
 1,-0.00702121,0.00271365,0.00008605,-0.00011158,-0.00000616,0.00133059
 ,-0.00005636,0.00232028,0.02535119,0.00694645,-0.07001651,-0.06012042,
 0.03204499,-0.12465747,-0.00278794,0.01310799,0.00247411,-0.01990119,0
 .00255501,-0.01173098,0.00177022,0.00111247,-0.00062921,0.00021812,0.0
 0175415,0.00184471,-0.00149074,-0.00154215,-0.00014144,0.00056057,-0.0
 0215638,0.00523832,-0.00019066,0.00026499,-0.00014091,-0.00053569,-0.0
 0026427,-0.00037542,0.00000829,0.00003052,0.00001094,-0.00282249,0.000
 53477,-0.00692111,0.00006046,-0.00373202,0.00148368,0.00015352,-0.0003
 8228,0.00046154,0.00254678,0.02555076,0.53965158,-0.00005072,-0.000124
 39,-0.00018714,-0.00022427,0.00083310,0.00016582,0.00123682,-0.0001501
 1,0.00083300,0.00005642,0.00013087,0.00020036,-0.00007111,-0.00007443,
 -0.00006375,0.00005377,0.00005278,0.00002128,0.00010741,0.00005245,0.0
 0027794,-0.00058088,0.00033523,-0.00108021,-0.00147588,0.00151092,-0.0
 0049058,-0.00022272,-0.00006492,0.00011767,-0.00103398,-0.00106780,-0.
 00121722,0.00001902,0.00012232,0.00011325,0.00001353,-0.00005688,0.000
 00788,0.00000195,0.00000542,-0.00000218,0.00001423,-0.00000275,0.00000
 029,0.00000202,0.00000101,-0.00000078,-0.00000804,-0.00001057,-0.00000
 536,-0.00002393,-0.00000784,0.00000784,-0.00006587,0.00001277,-0.00006
 990,-0.00004871,0.00019995,0.00087003,-0.00005057,0.00007970,-0.000255
 55,0.00003462,0.00002199,0.00007317,-0.00002927,-0.00000816,0.00000287
 ,0.,0.,0.,0.,0.,0.,0.,0.,0.,0.,0.,0.,0.00000049,0.00000041,-0.00000034
 ,0.00051883,-0.00019360,-0.00007054,0.00000128,0.00002350,-0.00001421,
 -0.00004988,-0.00017681,0.00014011,0.00007550,0.00044539,0.00011739,0.
 00020439,0.00058910,-0.00033886,0.00015651,0.00022214,-0.00018685,0.00
 002682,0.00002971,-0.00000458,-0.00000913,-0.00000422,0.00000149,0.000
 00105,0.00000082,0.00001124,0.00000376,0.00000866,-0.00001016,-0.00002
 297,0.00001089,-0.00002002,-0.00001794,-0.00000709,-0.00014251,0.00063
 377,-0.00082740,-0.00033403,-0.00051251,-0.00149165,0.00142697,0.00086
 946,-0.00090166,-0.00048543,-0.00006849,0.00021332,-0.00025948,-0.0000
 0290,-0.00006938,0.00008297,0.00001217,0.00000184,-0.00000724,0.,0.,0.
 ,0.,0.,0.,0.00000973,0.00000487,-0.00000028,0.00000504,-0.00001221,0.0
 0000996,0.00005673,0.00009699,-0.00007298,-0.00000971,-0.00014456,0.00
 025142,-0.00021834,0.00060855,-0.00026701,-0.00041286,0.00125813,0.000
 26596,-0.00017122,-0.00042601,0.00051365,-0.00025011,0.00039872,0.0001
 2557,0.00133803,-0.00117774,-0.00039867,-0.00005724,-0.00010051,0.0000
 1314,-0.00332833,-0.00057283,0.00117713,-0.00386102,-0.03372755,-0.003
 25600,0.00010963,0.02191453,0.00153741,-0.00193972,0.00014574,-0.00298
 135,0.00005335,0.00096453,0.00076522,-0.00171001,0.00038656,-0.0008480
 2,-0.00008828,0.00006834,-0.00073699,-0.00021258,-0.00036511,-0.000174
 65,0.00007134,0.00022289,-0.00009295,0.00001404,0.00007513,-0.00006755
 ,-0.00007470,0.00025188,-0.00022070,-0.00002628,-0.00012611,0.00013691
 ,-0.00003654,0.00055452,0.00015352,0.00017768,0.00021272,0.00025667,0.
 00002216,-0.00004449,-0.00000378,-0.04807207,0.00416735,0.00076623,0.0
 5818050,-0.00004432,0.00003371,0.00001572,-0.00006798,0.00019352,0.000
 04887,0.00043436,0.00004103,0.00053304,-0.00014294,-0.00005307,-0.0000
 6019,0.00003516,0.00001398,0.00000888,0.00003039,-0.00000933,0.0000028
 6,0.00001372,-0.00000798,-0.00003121,-0.00003643,0.00005395,0.00003440
 ,0.00020183,0.00035272,-0.00010573,0.00072781,-0.00046373,-0.00013670,
 -0.00046178,0.00030672,-0.00078322,0.00009512,0.00015776,0.00019245,0.
 00004301,-0.00001007,0.00001167,0.00000096,0.00000085,-0.00000070,0.00
 002042,-0.00000021,0.00000002,0.00000057,0.00000029,-0.00000022,0.0000
 0629,0.00000208,-0.00000125,0.00000185,0.00000118,-0.00000012,-0.00000
 289,-0.00000133,0.00001132,-0.00001363,0.00004568,-0.00003113,0.000060
 34,-0.00001876,0.00000305,-0.00001956,-0.00000326,-0.00000715,0.000000
 70,0.00000190,-0.00000128,0.,0.,0.,0.,0.,0.,0.,0.,0.,0.,0.,0.,0.000000
 30,0.00000035,-0.00000033,-0.00027752,-0.00098783,-0.00036918,-0.00003
 197,-0.00002459,-0.00000868,-0.00017615,-0.00038369,0.00020817,-0.0000
 6846,0.00048543,0.00001318,-0.00007113,-0.00054421,-0.00006764,0.00024
 070,0.00035728,-0.00034198,0.00002158,0.00001758,-0.00000661,-0.000016
 21,-0.00000727,0.00000296,-0.00000137,-0.00000012,0.00001572,-0.000003
 57,0.00000339,-0.00000905,-0.00006122,-0.00001612,-0.00004326,-0.00006
 553,-0.00020002,-0.00014827,-0.00167306,-0.00147651,-0.00041343,-0.000
 08377,0.00055515,-0.00008123,0.00018037,0.00003970,-0.00059607,-0.0001
 3478,-0.00003993,0.00009905,0.00005723,0.00003249,-0.00003453,0.000020
 02,0.00000104,-0.00000877,0.,0.,0.,0.,0.,0.,0.00000353,0.00000165,-0.0
 0000008,0.00001495,0.00000366,-0.00000194,0.00000564,-0.00001053,-0.00
 000602,-0.00003567,0.00002878,0.00000486,0.00011953,0.00014479,-0.0002
 2658,0.00012021,0.00056771,0.00019238,0.00078078,-0.00170773,0.0003830
 9,-0.00001600,0.00065561,0.00046936,-0.00232389,-0.00141282,0.00131329
 ,-0.00007125,-0.00007037,0.00001893,-0.00233121,-0.00158376,0.00008191
 ,0.00136523,-0.00589422,-0.00206797,0.00160468,-0.01194566,-0.00112655
 ,0.00393326,-0.00326292,0.00219503,-0.00129137,0.00005970,-0.00110971,
 0.00181808,0.00060202,0.00037036,0.00029875,0.00069430,0.00153248,-0.0
 0037490,0.00001927,-0.00020747,-0.00046058,-0.00008560,-0.00030687,-0.
 00011254,-0.00009501,0.00007309,0.00049737,-0.00021404,0.00060049,0.00
 006388,-0.00001590,-0.00015667,-0.00067113,0.00148478,0.00038228,0.000
 19127,-0.00010808,-0.00017033,0.00004449,0.00077723,-0.00002641,-0.001
 32488,-0.28402689,-0.03189588,-0.00128036,0.31236485,0.00000780,-0.000
 02081,-0.00001956,-0.00009021,0.00029075,-0.00002863,0.00041817,0.0000
 1867,0.00005167,-0.00004090,-0.00003257,0.00003296,0.00002049,-0.00000
 086,-0.00000365,0.00003146,0.00001271,0.00001064,-0.00014251,0.0000246
 9,-0.00003358,0.00029494,-0.00017458,0.00018669,0.00026447,-0.00000647
 ,-0.00000125,-0.00084351,0.00029658,0.00096791,0.00035211,0.00017862,0
 .00020868,-0.00002888,0.00004312,0.00004332,0.00002207,-0.00001112,0.0
 0001366,0.00000076,0.00000254,-0.00000115,0.00000855,-0.00000173,0.000
 00009,0.00000110,0.00000055,-0.00000042,0.00000303,-0.00000133,-0.0000
 0266,-0.00000569,-0.00000137,0.00000213,0.00006965,0.00000718,0.000003
 82,0.00000847,-0.00000651,-0.00012033,0.00010160,-0.00004576,0.0000353
 1,-0.00010076,-0.00001545,0.00000391,0.00001949,0.00000374,-0.00000093
 ,0.,0.,0.,0.,0.,0.,0.,0.,0.,0.,0.,0.,0.00000041,0.00000029,-0.00000022
 ,-0.00018963,-0.00015968,-0.00048501,0.00000413,-0.00002667,0.00001267
 ,0.00002146,0.00000745,-0.00000959,0.00040087,0.00025688,-0.00049156,-
 0.00038796,-0.00014759,-0.00008164,-0.00015918,-0.00023568,0.00019282,
 -0.00002965,-0.00003399,0.00000463,0.00000804,0.00000392,-0.00000104,-
 0.00001314,-0.00001346,-0.00000114,0.00000663,0.00000916,-0.00000584,-
 0.00001597,-0.00000087,-0.00000341,0.00002273,-0.00000645,-0.00008277,
 0.00236110,0.00242953,0.00031182,-0.00008463,0.00041312,-0.00012756,-0
 .00077814,0.00019182,-0.00005883,0.00016383,-0.00002472,0.00005264,-0.
 00009141,-0.00000879,0.00001936,-0.00001412,-0.00000040,0.00000819,0.,
 0.,0.,0.,0.,0.,-0.00001059,-0.00000521,0.00000029,-0.00001895,0.000004
 89,-0.00000506,-0.00005603,-0.00006863,0.00007219,0.00003171,0.0000837
 4,-0.00015921,-0.00005866,-0.00047850,0.00041075,-0.00003957,-0.000028
 91,-0.00007197,-0.00095284,0.00029778,-0.00006233,-0.00031478,-0.00004
 597,0.00028415,-0.00166745,-0.00177573,-0.00121063,0.00002959,0.000062
 11,0.00001801,0.00144455,0.00092762,0.00050865,0.00280955,0.00807597,-
 0.00057069,-0.00071095,0.02325753,-0.00039936,-0.00267707,0.00017273,-
 0.00117340,0.00119420,0.00041012,0.00053006,-0.00110385,0.00035302,0.0
 0002047,-0.00126727,0.00041041,-0.00197331,-0.00000437,-0.00024039,-0.
 00014869,-0.00008697,0.00022762,0.00020718,0.00010235,-0.00011535,0.00
 000218,-0.00011782,0.00018632,-0.00005467,-0.00005338,0.00007123,-0.00
 002870,-0.00038423,0.00111258,0.00046154,0.00008422,-0.00031021,0.0000
 1838,-0.00000378,0.00002641,-0.00008470,-0.00107590,-0.03468362,-0.052
 18361,0.00272740,0.03176374,0.06142678,-0.00013526,0.00000929,0.000037
 36,-0.00000620,-0.00032454,-0.00040125,0.00002723,0.00094846,-0.000154
 24,0.00016337,-0.00010995,0.00003124,0.00005246,0.00012437,0.00002023,
 0.00004095,-0.00001746,-0.00001495,-0.00006244,-0.00001676,-0.00006579
 ,0.00007162,-0.00004944,0.00024265,-0.00012567,0.00016515,-0.00039899,
 0.00065771,-0.00065668,0.00012004,-0.00172354,-0.00010605,-0.00062193,
 0.00012459,0.00037303,0.00001921,0.00001981,-0.00009251,0.00004634,0.0
 0004661,0.00001999,-0.00000079,0.00002622,-0.00000929,0.00000274,0.000
 01398,0.00000696,-0.00000541,0.00000773,0.00000686,0.00000227,0.000010
 50,0.00000502,-0.00000196,-0.00001886,-0.00000946,0.00000982,-0.000056
 16,0.00004971,-0.00009855,0.00000700,-0.00000064,0.00000652,0.00004882
 ,0.00000617,-0.00004274,-0.00000009,-0.00000004,0.00000008,0.,0.,0.,0.
 ,0.,0.,0.,0.,0.,-0.00000266,-0.00000002,0.00000053,-0.00000738,-0.0000
 0357,0.00000257,0.00020788,-0.00088550,-0.00046782,0.00009491,0.000082
 48,-0.00009957,-0.00007702,-0.00006697,0.00022989,-0.00021903,-0.00049
 407,-0.00039415,0.00051259,0.00026000,0.00000727,-0.00012456,-0.000008
 32,-0.00004921,-0.00002077,-0.00001031,0.00000918,0.00001101,0.0000032
 4,-0.00000744,-0.00000240,0.00000592,0.00001367,0.00002181,0.00002085,
 -0.00004840,-0.00018848,0.00000520,-0.00004514,0.00034431,-0.00024577,
 0.00027056,-0.00336041,-0.00272894,-0.00123819,0.00039865,-0.00022599,
 0.00007575,0.00008365,0.00003144,0.00001027,-0.00007447,-0.00003329,0.
 00004375,0.00001146,0.00001201,-0.00001294,0.00001338,-0.00000174,-0.0
 0000650,-0.00000378,-0.00000003,0.00000208,0.,0.,0.,0.,0.,0.,0.,0.,0.,
 0.00003945,-0.00000276,-0.00002080,-0.00001470,0.00000984,-0.00000850,
 0.00011080,-0.00002728,-0.00010959,0.00000845,0.00008800,0.00011979,-0
 .00027382,0.00075395,0.00022898,0.00000381,-0.00046977,0.00043176,0.00
 141041,-0.00046594,0.00158631,0.00005362,0.00005175,-0.00004529,-0.000
 68166,0.00250165,0.00035843,-0.01586340,0.00386385,0.02925138,0.005098
 98,-0.00322015,-0.02075155,-0.00145271,-0.00149137,-0.00130586,0.00008
 149,0.00076172,0.00077213,-0.00049398,-0.00021872,0.00119394,0.0004827
 9,0.00006273,-0.00026005,-0.00011783,0.00028993,-0.00028411,-0.0007180
 0,0.00072599,-0.00044870,0.00018811,0.00002812,0.00009421,-0.00023361,
 0.00037984,-0.00027512,-0.00003096,0.00043333,-0.00016572,0.00116485,0
 .00070619,0.00006046,0.00022069,-0.00119351,0.00024327,0.00017768,-0.0
 0019127,0.00008422,-0.05342627,0.01275978,0.05268654,0.00095675,0.0006
 9371,0.00058380,0.06650000,0.00000057,-0.00001773,-0.00003874,-0.00006
 416,-0.00003163,0.00014174,-0.00027322,-0.00010097,-0.00011069,-0.0000
 0475,0.00002265,-0.00000142,-0.00000717,-0.00002079,-0.00001157,0.0000
 0851,0.00001174,0.00000473,-0.00001472,0.00002485,0.00003796,0.0000003
 8,0.00000122,-0.00012451,-0.00007943,-0.00042322,0.00022862,0.00098289
 ,0.00001036,-0.00051468,0.00008864,-0.00031422,0.00008898,0.00000360,0
 .00006312,-0.00000219,0.00002369,-0.00003731,0.00003537,0.00002913,0.0
 0001206,-0.00000026,0.00002135,0.00000393,-0.00000140,-0.00000008,-0.0
 0000004,0.00000003,-0.00000510,-0.00000305,-0.00000018,-0.00000512,-0.
 00000202,0.00000133,0.00001045,0.00000247,-0.00000703,-0.00002511,0.00
 001594,0.00008688,-0.00000514,0.00000163,-0.00000316,-0.00002027,-0.00
 000254,0.00001764,0.00000004,0.00000002,-0.00000003,0.,0.,0.,0.,0.,0.,
 0.,0.,0.,-0.00000297,-0.00000002,0.00000059,-0.00000503,-0.00000171,0.
 00000123,0.00058754,-0.00005874,-0.00004797,0.00005447,0.00001840,-0.0
 0008158,0.00040535,0.00025746,-0.00009862,0.00006185,-0.00141041,-0.00
 010206,0.00003566,-0.00034186,0.00033649,-0.00008021,0.00003935,-0.000
 02578,-0.00001705,-0.00000604,0.00000857,0.00001025,0.00000244,-0.0000
 0834,0.00000766,0.00001476,0.00000658,0.00002793,0.00001990,-0.0000418
 3,-0.00026873,-0.00007384,-0.00006831,0.00058738,0.00036001,0.00045317
 ,-0.00042642,0.00019240,-0.00079877,0.00006108,-0.00000881,-0.00025576
 ,-0.00003461,-0.00004010,0.00004478,-0.00001115,0.00000144,-0.00001058
 ,-0.00000838,-0.00000031,0.00000634,0.00001597,0.00000052,-0.00000770,
 -0.00000423,-0.00000003,0.00000232,0.,0.,0.,0.,0.,0.,0.,0.,0.,0.000004
 06,-0.00000259,-0.00000074,-0.00000055,-0.00000705,0.00001130,0.000009
 77,-0.00000604,-0.00001292,-0.00006196,-0.00001957,-0.00003688,-0.0000
 9108,-0.00050365,0.00014941,-0.00042260,-0.00068839,0.00014296,0.00014
 590,0.00129421,0.00023057,0.00002189,0.00001864,-0.00001917,-0.0026374
 4,0.00182758,0.00161956,-0.00474781,0.00179790,0.01136940,-0.00207837,
 0.00198243,0.01578845,-0.00049478,0.00020503,-0.00143679,-0.00053046,-
 0.00086834,-0.00032697,0.00031722,-0.00031452,0.00084195,0.00034516,-0
 .00011195,0.00016873,0.00026072,0.00050637,0.00013028,-0.00029957,-0.0
 0022797,-0.00012595,-0.00037562,0.00037962,-0.00016508,0.00017418,-0.0
 0004550,0.00004504,0.00019184,-0.00034185,0.00026073,0.00053445,-0.001
 61516,0.00373202,0.00119351,-0.00260318,-0.00215233,-0.00021272,-0.000
 10808,0.00031021,0.01297996,-0.05844525,-0.04364178,0.00698141,-0.0054
 2053,-0.03290583,-0.01286844,0.06513658,0.00011585,-0.00004887,0.00000
 149,0.00024125,-0.00009200,-0.00019828,-0.00042610,0.00034504,0.000150
 28,0.00005954,-0.00001169,0.00003232,0.00001850,0.00002115,0.00000372,
 -0.00002672,0.00000018,-0.00001005,0.00004661,-0.00000790,0.00001326,0
 .00003781,-0.00004010,-0.00001074,0.00021106,-0.00007092,-0.00009153,0
 .00083802,-0.00098742,-0.00026247,-0.00056976,-0.00039490,-0.00030349,
 -0.00011736,-0.00007773,-0.00012508,-0.00000437,-0.00000252,-0.0000000
 1,0.00000484,0.00000195,-0.00000034,0.00000523,-0.00000337,0.00000123,
 0.00000355,0.00000177,-0.00000138,-0.00000240,-0.00000085,0.00000043,-
 0.00000168,-0.00000043,0.00000064,-0.00000189,-0.00000029,-0.00000359,
 0.00010703,-0.00007371,-0.00004961,-0.00000951,-0.00000108,0.00000554,
 -0.00000676,-0.00000057,0.00000463,0.,0.,0.,0.,0.,0.,0.,0.,0.,0.,0.,0.
 ,0.00000072,0.,-0.00000014,-0.00000075,-0.00000099,0.00000072,0.000762
 49,0.00045285,0.00080110,-0.00003948,-0.00002620,0.00008287,-0.0002879
 4,-0.00014797,-0.00013365,0.00019756,0.00022298,0.00106671,-0.00050491
 ,-0.00005209,-0.00092350,0.00017807,-0.00001896,0.00011455,0.00002872,
 0.00001485,-0.00001289,-0.00000681,-0.00000382,0.00000089,-0.00000757,
 -0.00001212,-0.00000890,0.00002544,0.00002180,0.00001205,-0.00000838,-
 0.00005075,0.00001112,-0.00027862,0.00007042,-0.00007010,0.00275295,0.
 00171474,0.00001561,-0.00045050,0.00007047,0.00025382,-0.00016317,0.00
 000252,0.00014241,0.00013696,0.00004925,-0.00009664,-0.00001096,-0.000
 01423,0.00001255,-0.00001928,0.00000262,0.00000904,0.00000103,0.,-0.00
 000056,0.,0.,0.,0.,0.,0.,0.,0.,0.,-0.00005437,0.00000520,0.00002730,0.
 00002769,-0.00000480,-0.00001767,-0.00020178,0.00008019,0.00020504,0.0
 0005012,-0.00011029,-0.00008506,0.00051606,-0.00056936,-0.00014921,-0.
 00092002,-0.00036018,-0.00008871,0.00096906,0.00228761,0.00166938,-0.0
 0006753,-0.00006292,0.00004239,0.00213898,-0.00089599,-0.00122944,0.00
 092091,-0.00400024,-0.00625167,-0.00218300,-0.00006608,-0.01647553,-0.
 00180633,-0.00457418,-0.00145013,0.00000715,0.00297078,-0.00112418,-0.
 00004820,-0.00031007,0.00078964,0.00112636,0.00018567,0.00096025,-0.00
 080111,0.00014800,-0.00055507,0.00027167,0.00060356,0.00005866,0.00019
 035,-0.00011631,-0.00007867,-0.00046431,0.00055164,-0.00011824,-0.0001
 3657,0.00039533,-0.00017905,0.00003704,0.00014146,0.00148368,0.0002432
 7,0.00215233,-0.00087755,0.00025667,0.00017033,0.00001838,0.05695146,-
 0.04636428,-0.28070287,0.00119609,0.00000779,-0.00643642,-0.06104801,0
 .04688367,0.31013073\\0.00000008,0.00000004,0.00000005,0.00000013,0.00
 000004,-0.00000007,-0.00000010,-0.00000014,0.00000008,0.00000014,0.,0.
 00000015,0.00000010,0.,0.00000002,-0.00000037,-0.00000020,0.00000018,-
 0.00000003,0.00000005,0.00000019,-0.00000007,-0.00000007,0.,-0.0000002
 6,0.00000003,0.00000005,-0.00000030,0.00000005,0.00000005,-0.00000013,
 -0.00000021,-0.00000032,-0.00000009,0.00000011,0.00000007,0.00000015,0
 .,-0.00000007,0.00000008,-0.00000004,0.00000006,-0.00000038,0.00000019
 ,0.00000017,0.00000031,-0.00000051,-0.00000006,0.00000032,0.00000052,-
 0.00000006,0.00000005,-0.00000007,-0.00000007,0.00000012,-0.00000005,-
 0.00000014,-0.00000025,-0.00000006,-0.00000031,0.00000008,0.00000014,-
 0.00000032,-0.00000005,0.00000003,0.00000012,0.00000003,0.00000032,-0.
 00000025,-0.00000009,0.,-0.00000004,-0.00000008,0.,-0.00000004,0.00000
 005,0.00000005,-0.00000006,0.00000014,0.00000005,-0.00000016,-0.000000
 05,-0.00000005,0.00000020,-0.00000014,0.00000020,-0.00000031,-0.000000
 58,-0.00000071,0.00000035,0.00000037,0.00000056,-0.00000044,0.00000212
 ,-0.00000352,-0.00000094,0.00000256,-0.00000015,0.00000102,-0.00000208
 ,-0.00000065,0.00000073,-0.00000020,0.00000004,0.00000029,0.00000010,-
 0.00000014,-0.00000032,-0.00000026,0.00000007,-0.00000031,-0.00000007,
 0.00000007,-0.00000003,-0.00000026,-0.00000003,0.00000004,-0.00000031,
 -0.00000003,0.00000004,0.00000212,0.00000354,-0.00000095,0.00000255,0.
 00000015,0.00000102,-0.00000208,0.00000066,0.00000073,0.00000148,0.,-0
 .00000127,-0.00000069,0.,0.00000010,0.00000016,0.00000036,0.00000008,-
 0.00000006,-0.00000004,0.00000012,0.00000002,-0.00000032,-0.00000026,0
 .00000002,0.00000027,0.00000021,0.00000002,-0.00000026,0.00000020,0.00
 000015,-0.00000038,0.00000007,-0.00000020,-0.00000002,0.00000030,0.000
 00062,-0.00000096,0.00000068,-0.00000060,0.00000069,0.00000036,0.00000
 036,-0.00000059,-0.00000045,-0.00000024,0.00000033,0.00000035,-0.00000
 023,-0.00000033,0.00000034,0.00000061,0.00000097,0.00000069,0.00000079
 ,0.00000007,-0.00000124,0.00000080,-0.00000008,-0.00000125,-0.00000062
 ,0.00000043,-0.00000093,-0.00000062,-0.00000043,-0.00000093,-0.0000013
 4,-0.00000023,0.00000058,-0.00000052,-0.00000020,0.00000012,-0.0000007
 0,-0.00000083,0.00000006,-0.00000065,0.00000043,-0.00000011,-0.0000013
 4,0.00000022,0.00000059,-0.00000052,0.00000021,0.00000012,-0.00000065,
 -0.00000043,-0.00000011,-0.00000070,0.00000084,0.00000006,-0.00000048,
 0.00000027,0.00000069,0.00000018,-0.00000058,0.00000017,0.00000094,0.0
 0000064,-0.00000022,-0.00000048,-0.00000028,0.00000069,0.00000094,-0.0
 0000063,-0.00000022,0.00000018,0.00000058,0.00000017\\\@


 CLIMB THE MOUNTAINS AND GET THEIR GOOD TIDINGS.
 NATURE'S PEACE WILL FLOW INTO YOU AS SUNSHINE FLOWS INTO TREES.
 THE WINDS WILL BLOW THEIR OWN FRESHNESS INTO YOU, 
 AND CARES WILL DROP OFF LIKE AUTUMN LEAVES.

                                         -- JOHN MUIR
 Job cpu time:       0 days  0 hours  0 minutes  1.5 seconds.
 Elapsed time:       0 days  0 hours  0 minutes 41.6 seconds.
 File lengths (MBytes):  RWF=     22 Int=      0 D2E=      0 Chk=      3 Scr=      2
 Normal termination of Gaussian 16 at Tue May 27 10:37:11 2025.
