 Entering Gaussian System, Link 0=/mlatom/software/Gaussian/g16-avx2/g16
 Input=gaussian.com
 Output=gaussian.log
 Initial command:
 /mlatom/software/Gaussian/g16-avx2/l1.exe "/mlatom/home/huangyh/projects/delta_learning/paper/revision1/Starting_from_ub3lyp_d4/da/b3lyp/ADL/r/Gau-134866.inp" -scrdir="/mlatom/home/huangyh/projects/delta_learning/paper/revision1/Starting_from_ub3lyp_d4/da/b3lyp/ADL/r/"
 Entering Link 1 = /mlatom/software/Gaussian/g16-avx2/l1.exe PID=    134874.
  
 Copyright (c) 1988,1990,1992,1993,1995,1998,2003,2009,2016,
            Gaussian, Inc.  All Rights Reserved.
  
 This is part of the Gaussian(R) 16 program.  It is based on
 the Gaussian(R) 09 system (copyright 2009, Gaussian, Inc.),
 the Gaussian(R) 03 system (copyright 2003, Gaussian, Inc.),
 the Gaussian(R) 98 system (copyright 1998, Gaussian, Inc.),
 the Gaussian(R) 94 system (copyright 1995, Gaussian, Inc.),
 the Gaussian 92(TM) system (copyright 1992, Gaussian, Inc.),
 the Gaussian 90(TM) system (copyright 1990, Gaussian, Inc.),
 the Gaussian 88(TM) system (copyright 1988, Gaussian, Inc.),
 the Gaussian 86(TM) system (copyright 1986, Carnegie Mellon
 University), and the Gaussian 82(TM) system (copyright 1983,
 Carnegie Mellon University). Gaussian is a federally registered
 trademark of Gaussian, Inc.
  
 This software contains proprietary and confidential information,
 including trade secrets, belonging to Gaussian, Inc.
  
 This software is provided under written license and may be
 used, copied, transmitted, or stored only in accord with that
 written license.
  
 The following legend is applicable only to US Government
 contracts under FAR:
  
                    RESTRICTED RIGHTS LEGEND
  
 Use, reproduction and disclosure by the US Government is
 subject to restrictions as set forth in subparagraphs (a)
 and (c) of the Commercial Computer Software - Restricted
 Rights clause in FAR 52.227-19.
  
 Gaussian, Inc.
 340 Quinnipiac St., Bldg. 40, Wallingford CT 06492
  
  
 ---------------------------------------------------------------
 Warning -- This program may not be used in any manner that
 competes with the business of Gaussian, Inc. or will provide
 assistance to any competitor of Gaussian, Inc.  The licensee
 of this program is prohibited from giving any competitor of
 Gaussian, Inc. access to this program.  By using this program,
 the user acknowledges that Gaussian, Inc. is engaged in the
 business of creating and licensing software in the field of
 computational chemistry and represents and warrants to the
 licensee that it is not a competitor of Gaussian, Inc. and that
 it will not use this program in any manner prohibited above.
 ---------------------------------------------------------------
  

 Cite this work as:
 Gaussian 16, Revision A.03,
 M. J. Frisch, G. W. Trucks, H. B. Schlegel, G. E. Scuseria, 
 M. A. Robb, J. R. Cheeseman, G. Scalmani, V. Barone, 
 G. A. Petersson, H. Nakatsuji, X. Li, M. Caricato, A. V. Marenich, 
 J. Bloino, B. G. Janesko, R. Gomperts, B. Mennucci, H. P. Hratchian, 
 J. V. Ortiz, A. F. Izmaylov, J. L. Sonnenberg, D. Williams-Young, 
 F. Ding, F. Lipparini, F. Egidi, J. Goings, B. Peng, A. Petrone, 
 T. Henderson, D. Ranasinghe, V. G. Zakrzewski, J. Gao, N. Rega, 
 G. Zheng, W. Liang, M. Hada, M. Ehara, K. Toyota, R. Fukuda, 
 J. Hasegawa, M. Ishida, T. Nakajima, Y. Honda, O. Kitao, H. Nakai, 
 T. Vreven, K. Throssell, J. A. Montgomery, Jr., J. E. Peralta, 
 F. Ogliaro, M. J. Bearpark, J. J. Heyd, E. N. Brothers, K. N. Kudin, 
 V. N. Staroverov, T. A. Keith, R. Kobayashi, J. Normand, 
 K. Raghavachari, A. P. Rendell, J. C. Burant, S. S. Iyengar, 
 J. Tomasi, M. Cossi, J. M. Millam, M. Klene, C. Adamo, R. Cammi, 
 J. W. Ochterski, R. L. Martin, K. Morokuma, O. Farkas, 
 J. B. Foresman, and D. J. Fox, Gaussian, Inc., Wallingford CT, 2016.
 
 ******************************************
 Gaussian 16:  ES64L-G16RevA.03 25-Dec-2016
                26-May-2025 
 ******************************************
 %nproc=1
 Will use up to    1 processors via shared memory.
 ----------------------------------------------------------------------
 #p Freq external='/mlatom/software/miniconda3/bin/python /mlatom/softw
 are/mlatom_xacs/mlatom/interfaces/gaussian_interface.py model_predict_
 kwargs'
 ----------------------------------------------------------------------
 1/10=4,18=10,30=1,38=1/1,3;
 2/12=2,17=6,18=5,40=1/2;
 3/11=9,25=1,30=1,41=9900000,43=2,71=2,140=1/1;
 4/20=17,22=2,24=3,113=1,114=1/2;
 6/7=2,8=2,9=2,10=2/1;
 7/8=1,25=1,44=-1/16;
 1/10=4,18=10,30=1/3;
 99//99;
 Leave Link    1 at Mon May 26 08:15:28 2025, MaxMem=           0 cpu:               0.1 elap:               0.1
 (Enter /mlatom/software/Gaussian/g16-avx2/l101.exe)
 ------------------------------------
 2dc872fa-cae7-49c3-ad4a-d28bcd7e6645
 ------------------------------------
 Symbolic Z-matrix:
 Charge =  0 Multiplicity = 1
 C                     1.39253   1.56926  -0.35795 
 C                     1.8369    0.61537   0.47157 
 H                     0.79832   1.34508  -1.23958 
 H                     1.60634   2.6183   -0.17918 
 H                     2.41614   0.92633   1.33974 
 C                     1.62859  -0.83328   0.36278 
 C                     1.0493   -1.51094  -0.63857 
 H                     2.00403  -1.4092    1.20847 
 H                     0.94627  -2.59026  -0.60092 
 H                     0.65465  -1.02307  -1.52591 
 C                    -2.82789   0.69944  -0.06547 
 C                    -2.65852  -0.56482   0.31096 
 H                    -3.79639   1.10049  -0.35232 
 H                    -1.99609   1.39697  -0.09898 
 H                    -1.67809  -0.9408    0.59427 
 H                    -3.48062  -1.27401   0.35447 
 
 ITRead=  0  0  0  0  0  0  0  0  0  0  0  0  0  0  0  0
 MicOpt= -1 -1 -1 -1 -1 -1 -1 -1 -1 -1 -1 -1 -1 -1 -1 -1
 NAtoms=     16 NQM=       16 NQMF=       0 NMMI=      0 NMMIF=      0
                NMic=       0 NMicF=      0.
                    Isotopes and Nuclear Properties:
 (Nuclear quadrupole moments (NQMom) in fm**2, nuclear magnetic moments (NMagM)
  in nuclear magnetons)

  Atom         1           2           3           4           5           6           7           8           9          10
 IAtWgt=          12          12           1           1           1          12          12           1           1           1
 AtmWgt=  12.0000000  12.0000000   1.0078250   1.0078250   1.0078250  12.0000000  12.0000000   1.0078250   1.0078250   1.0078250
 NucSpn=           0           0           1           1           1           0           0           1           1           1
 AtZEff=  -0.0000000  -0.0000000  -0.0000000  -0.0000000  -0.0000000  -0.0000000  -0.0000000  -0.0000000  -0.0000000  -0.0000000
 NQMom=    0.0000000   0.0000000   0.0000000   0.0000000   0.0000000   0.0000000   0.0000000   0.0000000   0.0000000   0.0000000
 NMagM=    0.0000000   0.0000000   2.7928460   2.7928460   2.7928460   0.0000000   0.0000000   2.7928460   2.7928460   2.7928460
 AtZNuc=   6.0000000   6.0000000   1.0000000   1.0000000   1.0000000   6.0000000   6.0000000   1.0000000   1.0000000   1.0000000

  Atom        11          12          13          14          15          16
 IAtWgt=          12          12           1           1           1           1
 AtmWgt=  12.0000000  12.0000000   1.0078250   1.0078250   1.0078250   1.0078250
 NucSpn=           0           0           1           1           1           1
 AtZEff=  -0.0000000  -0.0000000  -0.0000000  -0.0000000  -0.0000000  -0.0000000
 NQMom=    0.0000000   0.0000000   0.0000000   0.0000000   0.0000000   0.0000000
 NMagM=    0.0000000   0.0000000   2.7928460   2.7928460   2.7928460   2.7928460
 AtZNuc=   6.0000000   6.0000000   1.0000000   1.0000000   1.0000000   1.0000000
 Leave Link  101 at Mon May 26 08:15:28 2025, MaxMem=   104857600 cpu:               0.1 elap:               0.3
 (Enter /mlatom/software/Gaussian/g16-avx2/l103.exe)

 GradGradGradGradGradGradGradGradGradGradGradGradGradGradGradGradGradGrad
 Berny optimization.
 Initialization pass.
 Trust Radius=3.00D-01 FncErr=1.00D-07 GrdErr=1.00D-07 EigMax=2.50D+02 EigMin=1.00D-04
 Number of steps in this run=      2 maximum allowed number of steps=      2.
 GradGradGradGradGradGradGradGradGradGradGradGradGradGradGradGradGradGrad

 Leave Link  103 at Mon May 26 08:15:29 2025, MaxMem=   104857600 cpu:               0.1 elap:               0.2
 (Enter /mlatom/software/Gaussian/g16-avx2/l202.exe)
                          Input orientation:                          
 ---------------------------------------------------------------------
 Center     Atomic      Atomic             Coordinates (Angstroms)
 Number     Number       Type             X           Y           Z
 ---------------------------------------------------------------------
      1          6           0        1.392531    1.569263   -0.357953
      2          6           0        1.836900    0.615369    0.471574
      3          1           0        0.798319    1.345078   -1.239577
      4          1           0        1.606336    2.618303   -0.179183
      5          1           0        2.416136    0.926326    1.339736
      6          6           0        1.628586   -0.833284    0.362784
      7          6           0        1.049304   -1.510944   -0.638566
      8          1           0        2.004033   -1.409201    1.208471
      9          1           0        0.946271   -2.590262   -0.600916
     10          1           0        0.654646   -1.023073   -1.525911
     11          6           0       -2.827893    0.699444   -0.065471
     12          6           0       -2.658521   -0.564818    0.310955
     13          1           0       -3.796393    1.100491   -0.352316
     14          1           0       -1.996085    1.396971   -0.098984
     15          1           0       -1.678087   -0.940803    0.594266
     16          1           0       -3.480619   -1.274010    0.354473
 ---------------------------------------------------------------------
                    Distance matrix (angstroms):
                    1          2          3          4          5
     1  C    0.000000
     2  C    1.339960   0.000000
     3  H    1.086557   2.130531   0.000000
     4  H    1.085429   2.118581   1.843482   0.000000
     5  H    2.084055   1.088997   3.073359   2.413644   0.000000
     6  C    2.519408   1.467592   2.828810   3.493948   2.161226
     7  C    3.111948   2.524663   2.929346   4.191896   3.423769
     8  H    3.420360   2.160980   3.877207   4.278379   2.375236
     9  H    4.190445   3.495644   3.989571   5.267134   4.277035
    10  H    2.937483   2.841156   2.389722   3.997375   3.887794
    11  C    4.319040   4.696358   3.865848   4.832943   5.433776
    12  C    4.627392   4.650532   4.242828   5.344296   5.388325
    13  H    5.210058   5.713854   4.685982   5.614553   6.441187
    14  H    3.402862   3.953253   3.018665   3.804671   4.664667
    15  H    4.078706   3.846018   3.836771   4.904374   4.561201
    16  H    5.686769   5.644420   5.264022   6.427441   6.370553
                    6          7          8          9         10
     6  C    0.000000
     7  C    1.340706   0.000000
     8  H    1.089875   2.081683   0.000000
     9  H    2.116895   1.084879   2.405753   0.000000
    10  H    2.133483   1.086809   3.073563   1.843026   0.000000
    11  C    4.732109   4.499657   5.423727   5.035194   4.150666
    12  C    4.295817   3.942678   4.822647   4.234201   3.815907
    13  H    5.803555   5.512016   6.509958   6.014676   5.069379
    14  H    4.280830   4.245176   5.058160   4.980706   3.862527
    15  H    3.316508   3.046900   3.762267   3.322112   3.153341
    16  H    5.128185   4.643541   5.552387   4.716210   4.549640
                   11         12         13         14         15
    11  C    0.000000
    12  C    1.329940   0.000000
    13  H    1.086790   2.123191   0.000000
    14  H    1.086081   2.110803   1.842060   0.000000
    15  H    2.108961   1.087603   3.090327   2.459046   0.000000
    16  H    2.120595   1.086597   2.497503   3.089273   1.848689
                   16
    16  H    0.000000
 Stoichiometry    C6H10
 Framework group  C1[X(C6H10)]
 Deg. of freedom    42
 Full point group                 C1      NOp   1
 Largest Abelian subgroup         C1      NOp   1
 Largest concise Abelian subgroup C1      NOp   1
                         Standard orientation:                         
 ---------------------------------------------------------------------
 Center     Atomic      Atomic             Coordinates (Angstroms)
 Number     Number       Type             X           Y           Z
 ---------------------------------------------------------------------
      1          6           0       -1.392531    1.569263    0.357953
      2          6           0       -1.836900    0.615369   -0.471574
      3          1           0       -0.798319    1.345078    1.239577
      4          1           0       -1.606336    2.618303    0.179183
      5          1           0       -2.416136    0.926326   -1.339736
      6          6           0       -1.628586   -0.833284   -0.362784
      7          6           0       -1.049304   -1.510944    0.638566
      8          1           0       -2.004033   -1.409201   -1.208471
      9          1           0       -0.946271   -2.590262    0.600916
     10          1           0       -0.654646   -1.023073    1.525911
     11          6           0        2.827893    0.699444    0.065471
     12          6           0        2.658521   -0.564818   -0.310955
     13          1           0        3.796393    1.100491    0.352316
     14          1           0        1.996085    1.396971    0.098984
     15          1           0        1.678087   -0.940803   -0.594266
     16          1           0        3.480619   -1.274010   -0.354473
 ---------------------------------------------------------------------
 Rotational constants (GHZ):           4.0523102           1.4130011           1.1426803
 Leave Link  202 at Mon May 26 08:15:29 2025, MaxMem=   104857600 cpu:               0.0 elap:               0.1
 (Enter /mlatom/software/Gaussian/g16-avx2/l301.exe)
 Standard basis: STO-3G (5D, 7F)
 Ernie: Thresh=  0.10000D-02 Tol=  0.10000D-05 Strict=F.
 There are    40 symmetry adapted cartesian basis functions of A   symmetry.
 There are    40 symmetry adapted basis functions of A   symmetry.
    40 basis functions,   120 primitive gaussians,    40 cartesian basis functions
    23 alpha electrons       23 beta electrons
       nuclear repulsion energy       194.4813621246 Hartrees.
 IExCor=    0 DFT=F Ex=HF Corr=None ExCW=0 ScaHFX=  1.000000
 ScaDFX=  1.000000  1.000000  1.000000  1.000000 ScalE2=  1.000000  1.000000
 IRadAn=      5 IRanWt=     -1 IRanGd=            0 ICorTp=0 IEmpDi=  4
 NAtoms=   16 NActive=   16 NUniq=   16 SFac= 1.00D+00 NAtFMM=   60 NAOKFM=F Big=F
 Integral buffers will be    131072 words long.
 Raffenetti 1 integral format.
 Two-electron integral symmetry is turned on.
 Leave Link  301 at Mon May 26 08:15:29 2025, MaxMem=   104857600 cpu:               0.1 elap:               0.1
 (Enter /mlatom/software/Gaussian/g16-avx2/l402.exe)
 External calculation of energy, first and second derivatives.
 Running external command "/mlatom/software/miniconda3/bin/python /mlatom/software/mlatom_xacs/mlatom/interfaces/gaussian_interface.py model_predict_kwargs R"
         input file       "/mlatom/home/huangyh/projects/delta_learning/paper/revision1/Starting_from_ub3lyp_d4/da/b3lyp/ADL/r/Gau-134874.EIn"
         output file      "/mlatom/home/huangyh/projects/delta_learning/paper/revision1/Starting_from_ub3lyp_d4/da/b3lyp/ADL/r/Gau-134874.EOu"
         message file     "/mlatom/home/huangyh/projects/delta_learning/paper/revision1/Starting_from_ub3lyp_d4/da/b3lyp/ADL/r/Gau-134874.EMs"
         fchk file        "/mlatom/home/huangyh/projects/delta_learning/paper/revision1/Starting_from_ub3lyp_d4/da/b3lyp/ADL/r/Gau-134874.EFC"
         mat. el file     "/mlatom/home/huangyh/projects/delta_learning/paper/revision1/Starting_from_ub3lyp_d4/da/b3lyp/ADL/r/Gau-134874.EUF"
model loaded from /mlatom/home/huangyh/projects/delta_learning/paper/revision1/Starting_from_ub3lyp_d4/da/b3lyp/ADL_main_model_ethene_butadiene.npz
 Recovered energy= -234.576527736     dipole=     -0.048290024806     -0.010166321012     -0.015249481518
 Energy=    -234.576528     NIter=   0.
 Dipole moment=      -0.048290      -0.010166      -0.015249
 Leave Link  402 at Mon May 26 08:15:43 2025, MaxMem=   104857600 cpu:               0.1 elap:              13.7
 (Enter /mlatom/software/Gaussian/g16-avx2/l601.exe)
 Leave Link  601 at Mon May 26 08:15:43 2025, MaxMem=   104857600 cpu:               0.0 elap:               0.1
 (Enter /mlatom/software/Gaussian/g16-avx2/l716.exe)
 Dipole        =-4.82900248D-02-1.01663210D-02-1.52494815D-02
 Full mass-weighted force constant matrix:
 Low frequencies --- -125.3967  -82.0300  -69.6169   -0.1130    0.0269    0.1413
 Low frequencies ---   53.4827   86.8589   91.3484
 Diagonal vibrational polarizability:
        0.0000000       0.0000000       0.0000000
 Harmonic frequencies (cm**-1), IR intensities (KM/Mole), Raman scattering
 activities (A**4/AMU), depolarization ratios for plane and unpolarized
 incident light, reduced masses (AMU), force constants (mDyne/A),
 and normal coordinates:
                      1                      2                      3
                      A                      A                      A
 Frequencies --     32.6794                75.5716                88.3024
 Red. masses --      2.2825                 3.1244                 2.1002
 Frc consts  --      0.0014                 0.0105                 0.0096
 IR Inten    --      0.0000                 0.0000                 0.0000
  Atom  AN      X      Y      Z        X      Y      Z        X      Y      Z
     1   6     0.03  -0.01   0.08    -0.11   0.05   0.05     0.03  -0.02   0.06
     2   6     0.00   0.03   0.04     0.08   0.02  -0.01     0.19   0.00  -0.06
     3   1     0.06  -0.05   0.04    -0.15   0.09   0.09    -0.20  -0.06   0.21
     4   1     0.02  -0.00   0.13    -0.22   0.03   0.07     0.13  -0.01   0.01
     5   1    -0.02   0.08   0.07     0.12  -0.03  -0.06     0.43   0.04  -0.20
     6   6    -0.01   0.02  -0.04     0.24   0.04  -0.03     0.06  -0.01  -0.02
     7   6    -0.03  -0.04  -0.07     0.16   0.07   0.03    -0.17  -0.06   0.08
     8   1    -0.00   0.07  -0.08     0.42   0.02  -0.10     0.15   0.01  -0.07
     9   1    -0.04  -0.04  -0.12     0.28   0.08   0.01    -0.27  -0.07   0.11
    10   1    -0.04  -0.08  -0.04    -0.02   0.08   0.11    -0.24  -0.09   0.14
    11   6    -0.07   0.07  -0.20    -0.21  -0.09  -0.01    -0.06   0.05  -0.04
    12   6     0.07  -0.07   0.20    -0.13  -0.09  -0.04    -0.04   0.04  -0.03
    13   1    -0.13   0.23  -0.23    -0.28  -0.10   0.24    -0.02   0.15  -0.31
    14   1    -0.12   0.01  -0.51    -0.21  -0.07  -0.23    -0.13  -0.04   0.23
    15   1     0.13  -0.23   0.21    -0.08  -0.06  -0.28    -0.08  -0.05   0.25
    16   1     0.13  -0.02   0.52    -0.14  -0.10   0.19     0.03   0.13  -0.30
                      4                      5                      6
                      A                      A                      A
 Frequencies --    109.3400               152.4994               213.7074
 Red. masses --      2.2954                 2.0810                 1.6196
 Frc consts  --      0.0162                 0.0285                 0.0436
 IR Inten    --      0.0000                 0.0000                 0.0000
  Atom  AN      X      Y      Z        X      Y      Z        X      Y      Z
     1   6    -0.21   0.03   0.04    -0.10  -0.00   0.03     0.13  -0.02  -0.06
     2   6    -0.06   0.02  -0.02    -0.05  -0.01   0.02    -0.10  -0.01   0.06
     3   1    -0.28   0.04   0.10     0.02   0.03  -0.04     0.41  -0.03  -0.25
     4   1    -0.24   0.02   0.05    -0.22  -0.02   0.10    -0.00  -0.02   0.08
     5   1    -0.00  -0.00  -0.07    -0.13  -0.04   0.06    -0.38  -0.02   0.24
     6   6     0.01   0.03  -0.01     0.11   0.00  -0.07     0.08   0.01  -0.06
     7   6     0.01   0.07   0.01    -0.06  -0.00   0.03    -0.05   0.03   0.03
     8   1     0.07   0.01  -0.02     0.35   0.02  -0.19     0.30   0.03  -0.17
     9   1     0.06   0.07   0.03     0.07   0.01  -0.02     0.13   0.04  -0.01
    10   1    -0.03   0.09   0.02    -0.32  -0.02   0.15    -0.32   0.05   0.14
    11   6     0.04  -0.07  -0.00     0.21   0.01  -0.07    -0.09  -0.00   0.03
    12   6     0.21  -0.09  -0.02    -0.10   0.01   0.06     0.02  -0.00  -0.01
    13   1     0.03   0.15  -0.29     0.32  -0.18  -0.20    -0.08   0.11  -0.15
    14   1    -0.11  -0.26   0.29     0.35   0.18  -0.03    -0.17  -0.11   0.22
    15   1     0.20  -0.27   0.27    -0.21   0.20   0.17     0.01  -0.12   0.16
    16   1     0.36   0.10  -0.32    -0.26  -0.17   0.04     0.11   0.12  -0.23
                      7                      8                      9
                      A                      A                      A
 Frequencies --    250.2486               292.8615               517.6796
 Red. masses --      2.1242                 1.8859                 1.1693
 Frc consts  --      0.0784                 0.0953                 0.1846
 IR Inten    --      0.0000                 0.0000                 0.0000
  Atom  AN      X      Y      Z        X      Y      Z        X      Y      Z
     1   6    -0.02   0.18  -0.09     0.04  -0.09   0.03     0.03  -0.01  -0.02
     2   6     0.02   0.02   0.07     0.00  -0.00  -0.05    -0.08   0.00   0.02
     3   1    -0.00   0.40  -0.04    -0.02  -0.22   0.04    -0.30  -0.09   0.18
     4   1    -0.12   0.13  -0.29     0.13  -0.06   0.12     0.44   0.04  -0.24
     5   1    -0.03  -0.08   0.07     0.03   0.05  -0.05     0.26   0.03  -0.19
     6   6     0.04   0.01   0.07    -0.04   0.00  -0.02    -0.06   0.01   0.05
     7   6     0.07  -0.18  -0.07     0.15   0.11  -0.05     0.03  -0.00  -0.01
     8   1    -0.04   0.08   0.05    -0.19  -0.06   0.09     0.29   0.04  -0.13
     9   1    -0.04  -0.18  -0.29     0.14   0.10   0.07     0.44   0.05  -0.25
    10   1     0.18  -0.40   0.00     0.25   0.21  -0.15    -0.31  -0.08   0.18
    11   6    -0.02  -0.01   0.00    -0.02  -0.00  -0.01     0.01   0.00  -0.01
    12   6    -0.06  -0.01   0.05    -0.14  -0.02   0.10     0.00  -0.00   0.00
    13   1     0.04   0.04  -0.29     0.10   0.03  -0.45    -0.00   0.01   0.01
    14   1    -0.04  -0.04   0.24    -0.01  -0.01   0.33    -0.01  -0.02  -0.00
    15   1    -0.11  -0.06   0.29    -0.21  -0.06   0.42    -0.00   0.03  -0.01
    16   1    -0.03   0.04  -0.20    -0.12   0.02  -0.25    -0.01  -0.02   0.01
                     10                     11                     12
                      A                      A                      A
 Frequencies --    577.1932               771.0896               906.1750
 Red. masses --      2.1142                 1.7068                 2.1479
 Frc consts  --      0.4150                 0.5979                 1.0392
 IR Inten    --      0.0000                 0.0000                 0.0000
  Atom  AN      X      Y      Z        X      Y      Z        X      Y      Z
     1   6     0.01   0.08   0.04     0.02  -0.01  -0.01     0.00  -0.15  -0.01
     2   6     0.09  -0.09   0.16    -0.15  -0.02   0.10     0.06  -0.15   0.06
     3   1    -0.02   0.49   0.16    -0.33  -0.05   0.21     0.04   0.28   0.06
     4   1    -0.10  -0.01  -0.35     0.46   0.04  -0.30    -0.26  -0.27  -0.43
     5   1     0.16   0.03   0.15     0.09  -0.00  -0.06     0.06  -0.14   0.07
     6   6    -0.08  -0.14  -0.13     0.15   0.02  -0.08     0.00   0.17   0.04
     7   6    -0.02   0.07  -0.06    -0.02   0.01   0.01    -0.03   0.14  -0.04
     8   1    -0.07  -0.03  -0.20    -0.09   0.00   0.04     0.00   0.16   0.06
     9   1     0.24   0.08   0.26    -0.49  -0.05   0.25    -0.25   0.14  -0.50
    10   1    -0.20   0.44  -0.17     0.34   0.06  -0.18     0.08  -0.26   0.12
    11   6     0.00  -0.00   0.00     0.00   0.00  -0.00     0.00  -0.00   0.00
    12   6    -0.00  -0.00   0.00    -0.00   0.00  -0.00     0.00  -0.00   0.00
    13   1     0.00   0.01  -0.02     0.00  -0.01   0.01    -0.01   0.05  -0.01
    14   1    -0.01  -0.01   0.01     0.00   0.00   0.01    -0.03  -0.04  -0.03
    15   1    -0.01   0.01   0.01    -0.00  -0.01   0.00    -0.02   0.05   0.01
    16   1    -0.00  -0.00  -0.02     0.00   0.00   0.03    -0.03  -0.04  -0.03
                     13                     14                     15
                      A                      A                      A
 Frequencies --    924.5951               948.2432               959.5799
 Red. masses --      1.0681                 1.4478                 1.3307
 Frc consts  --      0.5380                 0.7670                 0.7219
 IR Inten    --      0.0000                 0.0000                 0.0000
  Atom  AN      X      Y      Z        X      Y      Z        X      Y      Z
     1   6     0.04   0.01  -0.02     0.04   0.01  -0.03    -0.11  -0.01   0.07
     2   6    -0.01   0.01   0.00    -0.01  -0.01   0.01     0.06   0.01  -0.04
     3   1    -0.13  -0.02   0.08    -0.14  -0.01   0.09     0.32   0.03  -0.21
     4   1    -0.14  -0.00   0.12    -0.20  -0.02   0.12     0.57   0.05  -0.37
     5   1    -0.00   0.01  -0.00     0.05  -0.00  -0.02    -0.27  -0.02   0.16
     6   6     0.00  -0.01  -0.01     0.03   0.00  -0.02    -0.01  -0.00   0.01
     7   6     0.02  -0.00  -0.00    -0.07  -0.00   0.03     0.03  -0.00  -0.01
     8   1    -0.05  -0.02   0.03    -0.10  -0.01   0.05     0.01  -0.00  -0.00
     9   1    -0.07  -0.01   0.05     0.32   0.04  -0.17    -0.15  -0.02   0.08
    10   1    -0.07  -0.00   0.03     0.23   0.02  -0.12    -0.15  -0.01   0.07
    11   6     0.04  -0.00  -0.00     0.02   0.03  -0.12     0.01   0.01  -0.05
    12   6     0.03  -0.01   0.02    -0.02  -0.03   0.11    -0.00  -0.02   0.06
    13   1    -0.17   0.41   0.10    -0.07  -0.18   0.46    -0.09   0.02   0.27
    14   1    -0.28  -0.38  -0.13    -0.03  -0.04   0.37    -0.07  -0.10   0.09
    15   1    -0.16   0.47   0.04     0.08   0.02  -0.30    -0.01   0.11  -0.09
    16   1    -0.27  -0.34  -0.20     0.11   0.16  -0.37     0.00   0.01  -0.28
                     16                     17                     18
                      A                      A                      A
 Frequencies --    960.7304              1017.9477              1045.1216
 Red. masses --      1.3285                 1.0921                 1.0780
 Frc consts  --      0.7225                 0.6668                 0.6938
 IR Inten    --      0.0000                 0.0000                 0.0000
  Atom  AN      X      Y      Z        X      Y      Z        X      Y      Z
     1   6    -0.04  -0.00   0.03    -0.02  -0.00   0.02    -0.01  -0.00   0.01
     2   6     0.02   0.01  -0.02    -0.04  -0.00   0.02     0.01   0.00  -0.01
     3   1     0.10   0.01  -0.06     0.37   0.04  -0.24     0.07   0.02  -0.04
     4   1     0.24   0.03  -0.15    -0.04  -0.00   0.03     0.03  -0.00  -0.04
     5   1    -0.13   0.00   0.08     0.42   0.05  -0.27    -0.05   0.02   0.04
     6   6     0.06   0.00  -0.03    -0.03  -0.01   0.02    -0.04  -0.01   0.02
     7   6    -0.11  -0.01   0.06    -0.01  -0.00   0.01    -0.02   0.00   0.01
     8   1    -0.25  -0.04   0.13     0.37   0.04  -0.20     0.39   0.02  -0.20
     9   1     0.59   0.07  -0.29    -0.07  -0.01   0.04    -0.05   0.00  -0.00
    10   1     0.36   0.03  -0.17     0.32   0.04  -0.16     0.33   0.01  -0.14
    11   6    -0.00  -0.02   0.06    -0.00  -0.01   0.03     0.01   0.01  -0.04
    12   6     0.01   0.01  -0.02    -0.01  -0.01   0.04     0.01   0.01  -0.03
    13   1     0.01   0.18  -0.26    -0.00   0.07  -0.09    -0.02   0.07  -0.03
    14   1    -0.04  -0.04  -0.18     0.02   0.03  -0.28    -0.13  -0.18   0.55
    15   1    -0.04   0.10   0.02     0.01   0.08  -0.13    -0.00   0.06  -0.06
    16   1    -0.09  -0.11   0.07     0.02   0.04  -0.32    -0.12  -0.17   0.49
                     19                     20                     21
                      A                      A                      A
 Frequencies --   1054.4772              1067.9813              1086.5900
 Red. masses --      1.1156                 1.0866                 1.4303
 Frc consts  --      0.7309                 0.7302                 0.9950
 IR Inten    --      0.0000                 0.0000                 0.0000
  Atom  AN      X      Y      Z        X      Y      Z        X      Y      Z
     1   6    -0.03  -0.00   0.01     0.01  -0.01   0.02     0.04  -0.02   0.06
     2   6    -0.05  -0.01   0.03    -0.01   0.02  -0.02    -0.06   0.08  -0.06
     3   1     0.39   0.02  -0.26     0.02   0.09   0.04     0.08   0.35   0.13
     4   1    -0.02   0.00   0.03    -0.03  -0.02  -0.05    -0.14  -0.09  -0.21
     5   1     0.47   0.02  -0.30    -0.03   0.11   0.02     0.03   0.45   0.01
     6   6     0.05   0.01  -0.02    -0.02  -0.03  -0.01    -0.01  -0.09  -0.07
     7   6     0.01  -0.01  -0.01    -0.01   0.01   0.02     0.04   0.04   0.06
     8   1    -0.39  -0.01   0.19     0.15  -0.09  -0.05    -0.00  -0.43   0.16
     9   1     0.08  -0.00  -0.01     0.03   0.01  -0.08    -0.14   0.02  -0.21
    10   1    -0.24   0.01   0.09     0.22  -0.07  -0.03     0.02  -0.32   0.26
    11   6     0.00   0.01  -0.03     0.01   0.01  -0.02    -0.00  -0.00   0.00
    12   6     0.01   0.01  -0.03     0.00   0.02  -0.06    -0.00  -0.01   0.02
    13   1    -0.04  -0.01   0.14    -0.10  -0.11   0.51     0.04   0.01  -0.15
    14   1    -0.06  -0.09   0.27     0.01   0.02  -0.18     0.01   0.01   0.06
    15   1    -0.03  -0.02   0.15    -0.14  -0.16   0.71     0.05   0.04  -0.23
    16   1    -0.06  -0.08   0.24    -0.03  -0.02  -0.06     0.03   0.03   0.02
                     22                     23                     24
                      A                      A                      A
 Frequencies --   1161.2869              1298.3549              1340.9788
 Red. masses --      1.5697                 1.5161                 1.3253
 Frc consts  --      1.2472                 1.5058                 1.4042
 IR Inten    --      0.0000                 0.0000                 0.0000
  Atom  AN      X      Y      Z        X      Y      Z        X      Y      Z
     1   6     0.03  -0.11   0.02    -0.00  -0.00   0.00    -0.06  -0.02  -0.09
     2   6    -0.04   0.07  -0.06    -0.00  -0.00  -0.00     0.05   0.00   0.07
     3   1     0.02   0.31   0.12    -0.00   0.00   0.00    -0.07  -0.35  -0.18
     4   1    -0.25  -0.24  -0.39     0.00   0.00   0.00    -0.03  -0.02  -0.05
     5   1    -0.03   0.30   0.03    -0.00  -0.00  -0.00     0.11   0.62   0.26
     6   6     0.02   0.09   0.06     0.00  -0.00   0.00    -0.02  -0.02  -0.05
     7   6     0.01  -0.12  -0.01    -0.00  -0.00  -0.00     0.04   0.00   0.07
     8   1    -0.04   0.28  -0.06     0.00   0.00  -0.00    -0.19   0.39  -0.26
     9   1     0.23  -0.11   0.44    -0.00  -0.00   0.00     0.01  -0.00   0.03
    10   1    -0.09   0.29  -0.18     0.01   0.00  -0.01     0.09  -0.20   0.17
    11   6     0.00  -0.00  -0.00    -0.15   0.03  -0.02     0.00   0.00   0.00
    12   6    -0.00  -0.00  -0.00     0.15  -0.02   0.02     0.00  -0.00   0.00
    13   1    -0.00   0.00   0.00     0.10  -0.48  -0.11     0.00   0.00  -0.00
    14   1    -0.00  -0.00   0.01     0.18   0.41   0.14     0.00   0.01  -0.01
    15   1    -0.00   0.00  -0.00    -0.07   0.45   0.12     0.01  -0.01  -0.01
    16   1     0.00   0.00   0.00    -0.22  -0.43  -0.15    -0.01  -0.01  -0.01
                     25                     26                     27
                      A                      A                      A
 Frequencies --   1380.3815              1396.1401              1483.5334
 Red. masses --      1.2752                 1.3177                 1.1551
 Frc consts  --      1.4316                 1.5133                 1.4979
 IR Inten    --      0.0000                 0.0000                 0.0000
  Atom  AN      X      Y      Z        X      Y      Z        X      Y      Z
     1   6     0.03   0.01   0.05    -0.01  -0.00  -0.01     0.01   0.01   0.01
     2   6    -0.03  -0.01  -0.06     0.01  -0.00   0.01     0.02   0.04   0.05
     3   1     0.05   0.25   0.11     0.00  -0.03  -0.02    -0.01  -0.37  -0.09
     4   1     0.03   0.02   0.06     0.01   0.00   0.00    -0.20  -0.10  -0.32
     5   1    -0.08  -0.45  -0.19     0.01   0.07   0.03     0.00  -0.22  -0.04
     6   6    -0.04  -0.01  -0.08     0.00   0.00   0.01    -0.03   0.05  -0.05
     7   6     0.04   0.01   0.08    -0.00  -0.00  -0.01    -0.02   0.01  -0.04
     8   1    -0.24   0.51  -0.35     0.03  -0.05   0.03     0.11  -0.30   0.14
     9   1     0.07  -0.00   0.14    -0.01   0.00  -0.02     0.24   0.01   0.50
    10   1     0.14  -0.32   0.22    -0.01   0.05  -0.04     0.12  -0.43   0.15
    11   6    -0.00  -0.01  -0.00    -0.02  -0.11  -0.03     0.00   0.00   0.00
    12   6     0.00   0.01   0.00     0.01   0.11   0.03     0.00   0.00   0.00
    13   1     0.01  -0.05  -0.02     0.13  -0.46  -0.10     0.01  -0.03  -0.01
    14   1    -0.02  -0.04  -0.01    -0.22  -0.38  -0.14    -0.02  -0.02  -0.01
    15   1    -0.01   0.06  -0.00    -0.12   0.47   0.11     0.01  -0.00  -0.01
    16   1     0.04   0.06   0.02     0.26   0.41   0.16    -0.01  -0.01  -0.00
                     28                     29                     30
                      A                      A                      A
 Frequencies --   1513.2370              1523.6098              1704.5075
 Red. masses --      1.1174                 1.3018                 3.8460
 Frc consts  --      1.5076                 1.7805                 6.5834
 IR Inten    --      0.0000                 0.0000                 0.0000
  Atom  AN      X      Y      Z        X      Y      Z        X      Y      Z
     1   6    -0.01  -0.00  -0.01    -0.02  -0.01  -0.03    -0.06  -0.17  -0.12
     2   6     0.00  -0.03  -0.00    -0.00  -0.12  -0.02     0.04   0.23   0.09
     3   1    -0.00   0.08   0.01     0.01   0.42   0.07    -0.03   0.44  -0.00
     4   1     0.06   0.03   0.10     0.29   0.16   0.46     0.18  -0.05   0.28
     5   1     0.01   0.07   0.03     0.03   0.31   0.11     0.02  -0.18  -0.02
     6   6    -0.01   0.02  -0.01    -0.02   0.09  -0.02     0.11  -0.22   0.16
     7   6    -0.00  -0.00  -0.01    -0.01  -0.01  -0.03    -0.10   0.15  -0.18
     8   1     0.02  -0.05   0.03     0.08  -0.15   0.11    -0.07   0.26  -0.05
     9   1     0.05  -0.00   0.11     0.18  -0.01   0.37     0.12   0.17   0.27
    10   1     0.03  -0.08   0.02     0.07  -0.26   0.08     0.06  -0.45   0.05
    11   6    -0.01  -0.07  -0.02     0.00   0.02   0.01    -0.00  -0.00  -0.00
    12   6    -0.00  -0.06  -0.02     0.00   0.02   0.00     0.00   0.01   0.00
    13   1    -0.24   0.43   0.07     0.07  -0.11  -0.02    -0.00  -0.00  -0.00
    14   1     0.35   0.36   0.14    -0.10  -0.10  -0.04    -0.00  -0.01  -0.00
    15   1    -0.22   0.42   0.08     0.06  -0.12  -0.04     0.01  -0.02   0.00
    16   1     0.30   0.29   0.13    -0.08  -0.08  -0.04    -0.01  -0.01  -0.00
                     31                     32                     33
                      A                      A                      A
 Frequencies --   1731.9262              1751.4885              3125.4797
 Red. masses --      2.6333                 3.3205                 1.0520
 Frc consts  --      4.6538                 6.0016                 6.0550
 IR Inten    --      0.0000                 0.0000                 0.0000
  Atom  AN      X      Y      Z        X      Y      Z        X      Y      Z
     1   6     0.00   0.00   0.00    -0.07  -0.17  -0.14    -0.00  -0.00  -0.00
     2   6    -0.00  -0.00  -0.00     0.08   0.19   0.16     0.00   0.00   0.00
     3   1    -0.01   0.00   0.01    -0.07   0.38  -0.03     0.01  -0.00   0.01
     4   1    -0.01  -0.00  -0.00     0.19  -0.07   0.28    -0.00   0.01  -0.00
     5   1    -0.00  -0.00   0.00     0.03  -0.45  -0.02    -0.00  -0.00  -0.00
     6   6    -0.00   0.00  -0.00    -0.10   0.11  -0.17    -0.00  -0.00  -0.00
     7   6     0.00  -0.00   0.00     0.08  -0.10   0.14     0.00  -0.00   0.00
     8   1    -0.00  -0.00   0.00     0.08  -0.40   0.08     0.02   0.03   0.04
     9   1    -0.01  -0.00  -0.00    -0.09  -0.13  -0.21    -0.00   0.00   0.00
    10   1    -0.01  -0.00   0.01    -0.02   0.28   0.01    -0.00  -0.00  -0.01
    11   6    -0.03  -0.25  -0.07    -0.00   0.00   0.00    -0.01  -0.05  -0.02
    12   6     0.04   0.26   0.08     0.00  -0.00   0.00    -0.00  -0.04  -0.01
    13   1    -0.33   0.28   0.01     0.00  -0.01  -0.00     0.54   0.22   0.16
    14   1     0.37   0.17   0.10    -0.00  -0.00  -0.00    -0.38   0.32   0.02
    15   1     0.34  -0.34  -0.04     0.00  -0.00  -0.01     0.37   0.14   0.10
    16   1    -0.44  -0.21  -0.14     0.00  -0.00  -0.00    -0.36   0.31   0.02
                     34                     35                     36
                      A                      A                      A
 Frequencies --   3157.1245              3174.1236              3177.8400
 Red. masses --      1.0827                 1.0839                 1.0762
 Frc consts  --      6.3584                 6.4342                 6.4033
 IR Inten    --      0.0000                 0.0000                 0.0000
  Atom  AN      X      Y      Z        X      Y      Z        X      Y      Z
     1   6    -0.00   0.00  -0.00     0.00  -0.02   0.00     0.00   0.00   0.00
     2   6     0.03  -0.01   0.04    -0.03   0.02  -0.05    -0.00   0.00  -0.00
     3   1     0.01   0.00   0.01     0.04  -0.02   0.06    -0.03   0.01  -0.04
     4   1     0.01  -0.07   0.01    -0.06   0.25  -0.05     0.01  -0.05   0.01
     5   1    -0.30   0.17  -0.45     0.41  -0.22   0.61     0.02  -0.01   0.03
     6   6    -0.02  -0.03  -0.05    -0.02  -0.02  -0.04     0.00   0.01   0.01
     7   6     0.00   0.01   0.01    -0.00   0.01  -0.00     0.00  -0.00   0.00
     8   1     0.27   0.42   0.61     0.19   0.28   0.42    -0.06  -0.09  -0.12
     9   1     0.01  -0.09  -0.00     0.02  -0.18  -0.01    -0.01   0.07   0.00
    10   1    -0.02  -0.02  -0.03     0.01   0.02   0.03    -0.01  -0.02  -0.03
    11   6     0.00   0.01   0.00     0.00   0.01   0.00     0.01   0.05   0.01
    12   6    -0.00  -0.01  -0.00    -0.00  -0.00  -0.00    -0.01  -0.06  -0.02
    13   1    -0.09  -0.04  -0.03    -0.06  -0.02  -0.02    -0.40  -0.16  -0.12
    14   1     0.06  -0.05  -0.00     0.03  -0.03  -0.00     0.31  -0.25  -0.01
    15   1     0.08   0.03   0.02     0.05   0.02   0.01     0.48   0.18   0.14
    16   1    -0.04   0.03   0.00    -0.01   0.01   0.00    -0.42   0.36   0.02
                     37                     38                     39
                      A                      A                      A
 Frequencies --   3199.4413              3207.7950              3227.4417
 Red. masses --      1.0617                 1.0642                 1.1140
 Frc consts  --      6.4033                 6.4520                 6.8365
 IR Inten    --      0.0000                 0.0000                 0.0000
  Atom  AN      X      Y      Z        X      Y      Z        X      Y      Z
     1   6    -0.01  -0.02  -0.02    -0.02  -0.03  -0.04     0.00   0.00   0.00
     2   6     0.00   0.00   0.00     0.01  -0.00   0.02     0.00  -0.00   0.00
     3   1     0.21  -0.09   0.31     0.35  -0.15   0.52    -0.01   0.01  -0.02
     4   1    -0.07   0.32  -0.06    -0.11   0.49  -0.10     0.00  -0.01   0.00
     5   1    -0.01  -0.00  -0.01    -0.12   0.06  -0.17    -0.01   0.00  -0.01
     6   6    -0.00   0.00  -0.01     0.01   0.01   0.01     0.00   0.00   0.00
     7   6     0.03  -0.03   0.05    -0.01   0.02  -0.03    -0.00   0.00  -0.00
     8   1     0.02   0.02   0.04    -0.05  -0.08  -0.12    -0.01  -0.02  -0.03
     9   1    -0.05   0.58   0.03     0.03  -0.32  -0.02     0.00  -0.03  -0.00
    10   1    -0.22  -0.29  -0.51     0.13   0.17   0.29     0.02   0.02   0.05
    11   6     0.00  -0.00   0.00     0.00   0.00   0.00     0.06  -0.02   0.01
    12   6    -0.01   0.00  -0.00     0.00  -0.00  -0.00    -0.07   0.01  -0.01
    13   1    -0.02  -0.01  -0.01    -0.05  -0.02  -0.01    -0.37  -0.16  -0.11
    14   1    -0.02   0.02   0.00     0.02  -0.01  -0.00    -0.40   0.34   0.02
    15   1     0.02   0.01   0.01     0.02   0.01   0.00     0.49   0.19   0.14
    16   1     0.04  -0.04  -0.00    -0.05   0.04   0.00     0.36  -0.32  -0.02
                     40                     41                     42
                      A                      A                      A
 Frequencies --   3268.3134              3272.6152              3278.5096
 Red. masses --      1.1163                 1.1171                 1.1161
 Frc consts  --      7.0258                 7.0490                 7.0684
 IR Inten    --      0.0000                 0.0000                 0.0000
  Atom  AN      X      Y      Z        X      Y      Z        X      Y      Z
     1   6     0.04  -0.07   0.05     0.01  -0.02   0.01    -0.00   0.00  -0.00
     2   6     0.01  -0.00   0.01     0.00  -0.00   0.00    -0.00   0.00  -0.00
     3   1    -0.34   0.12  -0.50    -0.09   0.03  -0.13     0.03  -0.01   0.05
     4   1    -0.14   0.68  -0.11    -0.05   0.21  -0.04     0.01  -0.04   0.01
     5   1    -0.08   0.04  -0.13    -0.03   0.01  -0.04     0.02  -0.01   0.03
     6   6     0.00   0.00   0.00     0.00   0.00   0.00    -0.00  -0.01  -0.01
     7   6    -0.00  -0.01  -0.00    -0.00  -0.00  -0.00    -0.01  -0.08  -0.05
     8   1    -0.01  -0.01  -0.01    -0.01  -0.01  -0.02     0.05   0.08   0.11
     9   1    -0.01   0.06   0.00    -0.00   0.03   0.00    -0.07   0.70   0.02
    10   1     0.01   0.02   0.03     0.02   0.03   0.05     0.25   0.30   0.56
    11   6     0.02  -0.00   0.00    -0.07   0.01  -0.01     0.00  -0.00   0.00
    12   6     0.02  -0.00   0.00    -0.06   0.01  -0.01     0.00  -0.00   0.00
    13   1    -0.12  -0.05  -0.04     0.41   0.18   0.12    -0.02  -0.01  -0.00
    14   1    -0.11   0.09   0.00     0.41  -0.34  -0.02    -0.01   0.01  -0.00
    15   1    -0.13  -0.05  -0.04     0.42   0.16   0.12    -0.02  -0.01  -0.01
    16   1    -0.10   0.09   0.01     0.33  -0.29  -0.02    -0.02   0.02   0.00

 -------------------
 - Thermochemistry -
 -------------------
 Temperature   298.150 Kelvin.  Pressure   1.00000 Atm.
 Atom     1 has atomic number  6 and mass  12.00000
 Atom     2 has atomic number  6 and mass  12.00000
 Atom     3 has atomic number  1 and mass   1.00783
 Atom     4 has atomic number  1 and mass   1.00783
 Atom     5 has atomic number  1 and mass   1.00783
 Atom     6 has atomic number  6 and mass  12.00000
 Atom     7 has atomic number  6 and mass  12.00000
 Atom     8 has atomic number  1 and mass   1.00783
 Atom     9 has atomic number  1 and mass   1.00783
 Atom    10 has atomic number  1 and mass   1.00783
 Atom    11 has atomic number  6 and mass  12.00000
 Atom    12 has atomic number  6 and mass  12.00000
 Atom    13 has atomic number  1 and mass   1.00783
 Atom    14 has atomic number  1 and mass   1.00783
 Atom    15 has atomic number  1 and mass   1.00783
 Atom    16 has atomic number  1 and mass   1.00783
 Molecular mass:    82.07825 amu.
 Principal axes and moments of inertia in atomic units:
                           1         2         3
     Eigenvalues --   445.361071277.239811579.39299
           X            0.99997  -0.00273   0.00664
           Y            0.00265   0.99993   0.01189
           Z           -0.00667  -0.01188   0.99991
 This molecule is an asymmetric top.
 Rotational symmetry number  1.
 Warning -- assumption of classical behavior for rotation
           may cause significant error
 Rotational temperatures (Kelvin)      0.19448     0.06781     0.05484
 Rotational constants (GHZ):           4.05231     1.41300     1.14268
 Zero-point vibrational energy     367413.5 (Joules/Mol)
                                   87.81394 (Kcal/Mol)
 Warning -- explicit consideration of  10 degrees of freedom as
           vibrations may cause significant error
 Vibrational temperatures:     47.02   108.73   127.05   157.32   219.41
          (Kelvin)            307.48   360.05   421.36   744.83   830.45
                             1109.43  1303.78  1330.29  1364.31  1380.62
                             1382.28  1464.60  1503.70  1517.16  1536.59
                             1563.36  1670.83  1868.04  1929.37  1986.06
                             2008.73  2134.47  2177.21  2192.13  2452.41
                             2491.86  2520.00  4496.87  4542.40  4566.86
                             4572.20  4603.28  4615.30  4643.57  4702.37
                             4708.56  4717.04
 
 Zero-point correction=                           0.139940 (Hartree/Particle)
 Thermal correction to Energy=                    0.148925
 Thermal correction to Enthalpy=                  0.149869
 Thermal correction to Gibbs Free Energy=         0.105020
 Sum of electronic and zero-point Energies=           -234.436587
 Sum of electronic and thermal Energies=              -234.427603
 Sum of electronic and thermal Enthalpies=            -234.426659
 Sum of electronic and thermal Free Energies=         -234.471508
 
                     E (Thermal)             CV                S
                      KCal/Mol        Cal/Mol-Kelvin    Cal/Mol-Kelvin
 Total                   93.452             28.871             94.393
 Electronic               0.000              0.000              0.000
 Translational            0.889              2.981             39.129
 Rotational               0.889              2.981             28.287
 Vibrational             91.674             22.909             26.976
 Vibration     1          0.594              1.983              5.660
 Vibration     2          0.599              1.965              4.003
 Vibration     3          0.601              1.957              3.697
 Vibration     4          0.606              1.942              3.281
 Vibration     5          0.619              1.900              2.641
 Vibration     6          0.644              1.820              2.012
 Vibration     7          0.663              1.762              1.729
 Vibration     8          0.688              1.687              1.457
 Vibration     9          0.873              1.211              0.615
 Vibration    10          0.934              1.081              0.491
                       Q            Log10(Q)             Ln(Q)
 Total Bot       0.494459D-48        -48.305870       -111.228375
 Total V=0       0.115397D+17         16.062196         36.984573
 Vib (Bot)       0.498599D-61        -61.302249       -141.153644
 Vib (Bot)    1  0.633458D+01          0.801718          1.846023
 Vib (Bot)    2  0.272696D+01          0.435679          1.003188
 Vib (Bot)    3  0.232910D+01          0.367188          0.845481
 Vib (Bot)    4  0.187342D+01          0.272636          0.627767
 Vib (Bot)    5  0.132867D+01          0.123417          0.284178
 Vib (Bot)    6  0.927992D+00         -0.032456         -0.074732
 Vib (Bot)    7  0.779819D+00         -0.108006         -0.248694
 Vib (Bot)    8  0.651959D+00         -0.185780         -0.427774
 Vib (Bot)    9  0.312465D+00         -0.505199         -1.163263
 Vib (Bot)   10  0.264747D+00         -0.577169         -1.328982
 Vib (V=0)       0.116364D+04          3.065817          7.059304
 Vib (V=0)    1  0.685428D+01          0.835962          1.924873
 Vib (V=0)    2  0.327242D+01          0.514869          1.185530
 Vib (V=0)    3  0.288216D+01          0.459718          1.058541
 Vib (V=0)    4  0.243900D+01          0.387211          0.891587
 Vib (V=0)    5  0.191964D+01          0.283219          0.652135
 Vib (V=0)    6  0.155412D+01          0.191485          0.440909
 Vib (V=0)    7  0.142635D+01          0.154225          0.355116
 Vib (V=0)    8  0.132161D+01          0.121105          0.278854
 Vib (V=0)    9  0.108961D+01          0.037269          0.085815
 Vib (V=0)   10  0.106577D+01          0.027662          0.063693
 Electronic      0.100000D+01          0.000000          0.000000
 Translational   0.292278D+08          7.465796         17.190631
 Rotational      0.339299D+06          5.530583         12.734638
 ***** Axes restored to original set *****
 -------------------------------------------------------------------
 Center     Atomic                   Forces (Hartrees/Bohr)
 Number     Number              X              Y              Z
 -------------------------------------------------------------------
      1        6          -0.000000484   -0.000009022    0.000007754
      2        6          -0.000001703   -0.000000597   -0.000007403
      3        1           0.000006932   -0.000000553    0.000006950
      4        1          -0.000002837    0.000000480   -0.000001376
      5        1           0.000000701    0.000002111   -0.000001341
      6        6          -0.000009679   -0.000002430   -0.000011239
      7        6           0.000004450    0.000009185    0.000003491
      8        1           0.000000989    0.000003298    0.000001936
      9        1           0.000000738   -0.000000262    0.000002211
     10        1           0.000001342   -0.000003936   -0.000003092
     11        6          -0.000003418    0.000010503   -0.000005242
     12        6          -0.000001269    0.000000086   -0.000003791
     13        1          -0.000000814    0.000000663    0.000002029
     14        1          -0.000001840   -0.000003802    0.000001133
     15        1           0.000006351   -0.000005941    0.000008365
     16        1           0.000000542    0.000000215   -0.000000387
 -------------------------------------------------------------------
 Cartesian Forces:  Max     0.000011239 RMS     0.000004654
 Z-matrix is all fixed cartesians, so copy forces.
 Leave Link  716 at Mon May 26 08:15:43 2025, MaxMem=   104857600 cpu:               0.1 elap:               0.2
 (Enter /mlatom/software/Gaussian/g16-avx2/l103.exe)

 GradGradGradGradGradGradGradGradGradGradGradGradGradGradGradGradGradGrad
 Berny optimization.
 Search for a local minimum.
 Step number   1 out of a maximum of    2
 All quantities printed in internal units (Hartrees-Bohrs-Radians)
 Second derivative matrix not updated -- analytic derivatives used.
 ITU=  0
     Eigenvalues ---    0.00017   0.00050   0.00092   0.00160   0.00176
     Eigenvalues ---    0.00355   0.00564   0.00825   0.01473   0.02843
     Eigenvalues ---    0.03440   0.03770   0.04257   0.05852   0.06508
     Eigenvalues ---    0.07407   0.07698   0.08179   0.08753   0.10689
     Eigenvalues ---    0.11708   0.13261   0.14909   0.15442   0.15621
     Eigenvalues ---    0.16800   0.17616   0.21964   0.25308   0.31337
     Eigenvalues ---    0.41114   0.52560   0.53769   0.72593   0.83015
     Eigenvalues ---    0.86021   0.93642   0.99593   1.01678   1.39742
     Eigenvalues ---    1.48311   1.52056
 Angle between quadratic step and forces=  82.24 degrees.
 Linear search not attempted -- first point.
 B after Tr=    -0.000006    0.000003   -0.000010
         Rot=    1.000000   -0.000001   -0.000003    0.000001 Ang=  -0.00 deg.
 Variable       Old X    -DE/DX   Delta X   Delta X   Delta X     New X
                                 (Linear)    (Quad)   (Total)
    X1        2.63150  -0.00000   0.00000  -0.00023  -0.00023   2.63127
    Y1        2.96548  -0.00001   0.00000  -0.00002  -0.00002   2.96546
    Z1       -0.67643   0.00001   0.00000   0.00002  -0.00001  -0.67644
    X2        3.47124  -0.00000   0.00000  -0.00005  -0.00005   3.47119
    Y2        1.16288  -0.00000   0.00000  -0.00003  -0.00003   1.16284
    Z2        0.89115  -0.00001   0.00000  -0.00013  -0.00016   0.89099
    X3        1.50860   0.00001   0.00000  -0.00042  -0.00044   1.50817
    Y3        2.54183  -0.00000   0.00000  -0.00005  -0.00004   2.54179
    Z3       -2.34246   0.00001   0.00000   0.00018   0.00017  -2.34229
    X4        3.03553  -0.00000   0.00000  -0.00016  -0.00016   3.03538
    Y4        4.94788   0.00000   0.00000  -0.00001  -0.00002   4.94786
    Z4       -0.33861  -0.00000   0.00000  -0.00009  -0.00012  -0.33872
    X5        4.56584   0.00000   0.00000   0.00018   0.00020   4.56604
    Y5        1.75050   0.00000   0.00000  -0.00006  -0.00007   1.75043
    Z5        2.53173  -0.00000   0.00000  -0.00027  -0.00031   2.53142
    X6        3.07758  -0.00001   0.00000  -0.00031  -0.00032   3.07727
    Y6       -1.57468  -0.00000   0.00000   0.00002   0.00001  -1.57467
    Z6        0.68556  -0.00001   0.00000  -0.00002  -0.00005   0.68551
    X7        1.98290   0.00000   0.00000  -0.00009  -0.00011   1.98279
    Y7       -2.85527   0.00001   0.00000  -0.00007  -0.00007  -2.85534
    Z7       -1.20671   0.00000   0.00000  -0.00006  -0.00009  -1.20680
    X8        3.78707   0.00000   0.00000  -0.00063  -0.00063   3.78645
    Y8       -2.66300   0.00000   0.00000   0.00011   0.00010  -2.66290
    Z8        2.28368   0.00000   0.00000   0.00020   0.00016   2.28384
    X9        1.78819   0.00000   0.00000  -0.00030  -0.00033   1.78787
    Y9       -4.89489  -0.00000   0.00000  -0.00004  -0.00004  -4.89493
    Z9       -1.13557   0.00000   0.00000   0.00022   0.00019  -1.13538
   X10        1.23710   0.00000   0.00000   0.00030   0.00027   1.23737
   Y10       -1.93333  -0.00000   0.00000  -0.00027  -0.00027  -1.93359
   Z10       -2.88355  -0.00000   0.00000  -0.00034  -0.00036  -2.88392
   X11       -5.34394  -0.00000   0.00000   0.00019   0.00019  -5.34376
   Y11        1.32176   0.00001   0.00000   0.00008   0.00010   1.32186
   Z11       -0.12372  -0.00001   0.00000   0.00013   0.00016  -0.12357
   X12       -5.02388  -0.00000   0.00000   0.00043   0.00042  -5.02345
   Y12       -1.06735   0.00000   0.00000   0.00005   0.00007  -1.06728
   Z12        0.58762  -0.00000   0.00000  -0.00003  -0.00001   0.58761
   X13       -7.17414  -0.00000   0.00000   0.00025   0.00025  -7.17390
   Y13        2.07963   0.00000   0.00000  -0.00028  -0.00025   2.07937
   Z13       -0.66578   0.00000   0.00000  -0.00059  -0.00055  -0.66633
   X14       -3.77205  -0.00000   0.00000  -0.00008  -0.00008  -3.77213
   Y14        2.63989  -0.00000   0.00000   0.00043   0.00044   2.64034
   Z14       -0.18705   0.00000   0.00000   0.00104   0.00106  -0.18599
   X15       -3.17112   0.00001   0.00000   0.00032   0.00032  -3.17080
   Y15       -1.77786  -0.00001   0.00000   0.00036   0.00037  -1.77748
   Z15        1.12300   0.00001   0.00000   0.00085   0.00086   1.12386
   X16       -6.57742   0.00000   0.00000   0.00069   0.00068  -6.57673
   Y16       -2.40753   0.00000   0.00000  -0.00031  -0.00029  -2.40782
   Z16        0.66986  -0.00000   0.00000  -0.00096  -0.00094   0.66892
         Item               Value     Threshold  Converged?
 Maximum Force            0.000011     0.000450     YES
 RMS     Force            0.000005     0.000300     YES
 Maximum Displacement     0.001059     0.001800     YES
 RMS     Displacement     0.000350     0.001200     YES
 Predicted change in Energy=-5.141348D-09
 Optimization completed.
    -- Stationary point found.
 GradGradGradGradGradGradGradGradGradGradGradGradGradGradGradGradGradGrad

 Leave Link  103 at Mon May 26 08:15:43 2025, MaxMem=   104857600 cpu:               0.0 elap:               0.4
 (Enter /mlatom/software/Gaussian/g16-avx2/l9999.exe)
 1\1\GINC-B004\Freq\RExternal='/mlatom/software/miniconda3/bin/python /
 mlatom/software/mlatom_xacs/ml\ZDO\C6H10\UNKNOWN\26-May-2025\0\\#p Fre
 q external='/mlatom/software/miniconda3/bin/python /mlatom/software/ml
 atom_xacs/mlatom/interfaces/gaussian_interface.py model_predict_kwargs
 '\\2dc872fa-cae7-49c3-ad4a-d28bcd7e6645\\0,1\C,1.3925308332,1.56926295
 05,-0.3579532508\C,1.8368998814,0.6153691056,0.471573766\H,0.798318971
 2,1.3450777074,-1.2395767203\H,1.6063358294,2.618302696,-0.179183194\H
 ,2.416135968,0.9263264722,1.3397359057\C,1.6285858065,-0.8332839037,0.
 3627844617\C,1.049304424,-1.5109437728,-0.6385659219\H,2.0040330286,-1
 .4092006442,1.2084710159\H,0.9462706523,-2.5902624617,-0.6009158373\H,
 0.6546457761,-1.0230733347,-1.5259113199\C,-2.8278928727,0.6994436682,
 -0.0654706494\C,-2.6585207634,-0.5648180841,0.3109551689\H,-3.79639293
 43,1.1004914579,-0.3523162459\H,-1.996085236,1.3969714026,-0.098983730
 9\H,-1.6780868309,-0.9408027103,0.5942660346\H,-3.4806190779,-1.274010
 368,0.354472645\\Version=ES64L-G16RevA.03\HF=-234.5765277\RMSD=0.000e+
 00\RMSF=4.654e-06\ZeroPoint=0.1399404\Thermal=0.148925\Dipole=0.04829,
 -0.0101663,0.0152495\PG=C01 [X(C6H10)]\NImag=0\\0.29132521,-0.00698838
 ,0.75852867,0.29114100,-0.10869871,0.56983509,-0.11259142,0.10069269,-
 0.12418320,0.30183847,0.08936099,-0.31872894,0.17853994,-0.02569505,0.
 69447406,-0.12313163,0.19659905,-0.26160887,0.27850584,-0.12467582,0.5
 8630771,-0.12824912,-0.03508646,-0.13744843,-0.00300462,-0.00281363,-0
 .00912640,0.12746653,-0.03680993,-0.07815253,-0.04948654,0.01281658,0.
 01301493,0.01823108,0.03827388,0.07074726,-0.13680324,-0.04582968,-0.2
 3974585,-0.01057645,-0.00542823,-0.01307971,0.15261072,0.05161449,0.25
 272290,-0.05438537,-0.06021387,-0.02388291,0.00481861,0.01181785,0.002
 55982,0.00055091,-0.01615572,-0.00303373,0.04687426,-0.05771799,-0.325
 89752,-0.04694164,-0.00665980,-0.01941194,-0.00713331,-0.00108183,-0.0
 0444373,-0.00070272,0.06350189,0.34790902,-0.02362667,-0.05098965,-0.0
 6320048,0.00452399,0.02098949,0.00613848,-0.00523681,-0.02411990,-0.00
 061496,0.02645205,0.04966788,0.05560763,-0.00399255,-0.00593286,-0.010
 17267,-0.12174621,-0.04398758,-0.12268539,0.00869510,0.00152460,-0.006
 21709,-0.00388525,0.00124494,0.00401577,0.11954081,0.01252133,0.008881
 06,0.01859195,-0.04209301,-0.08770266,-0.05835049,0.00100293,-0.001928
 14,0.00357516,0.00041284,0.00069063,-0.00030781,0.04776358,0.09084293,
 -0.01290560,-0.01084920,-0.01509666,-0.12319784,-0.06013694,-0.2260361
 8,-0.00563703,0.00436480,0.00231269,0.00388200,0.00080848,-0.00020695,
 0.14030300,0.06567941,0.23800514,0.00809783,0.00565372,0.00914512,-0.0
 7757384,-0.00936098,-0.02508252,-0.00394809,0.00019712,0.00228004,0.00
 806666,0.00111910,-0.00638072,0.00023999,-0.01849807,-0.00428928,0.280
 25779,0.00632251,-0.04263025,0.01738915,-0.03638287,-0.23815994,-0.029
 44661,-0.00081592,0.00256856,-0.00279602,0.00053243,0.00103200,0.00309
 868,-0.00036145,-0.00712457,-0.00068903,0.08221972,0.63784356,0.008762
 70,0.01377620,0.01471175,-0.01964259,0.01665665,-0.10068530,0.00253173
 ,-0.00096345,-0.00223547,-0.00664486,0.00331386,0.00183133,-0.00655010
 ,-0.02771309,-0.00292228,0.28187027,0.05835365,0.66267717,-0.00165657,
 0.00411663,-0.00421077,0.00148744,-0.01822755,0.00142039,0.00044651,0.
 00076232,0.00052028,-0.00004128,0.00020981,-0.00005072,0.00179871,-0.0
 0009051,-0.00036109,-0.13670990,-0.08778086,-0.16792722,0.26043276,-0.
 00180634,0.00188004,-0.00426877,-0.01454226,-0.02899059,-0.02330540,-0
 .00004195,-0.00158569,0.00011096,-0.00042097,0.00094438,-0.00041352,-0
 .00109754,-0.00450904,-0.00050977,-0.10158391,-0.21634324,-0.16383387,
 0.08981786,0.71131284,-0.00325675,0.00680040,-0.00607752,0.00110330,-0
 .02762080,0.00881935,0.00031795,0.00202442,0.00105457,0.00007661,0.000
 30311,-0.00004664,-0.00018917,0.00140039,0.00194479,-0.16716301,-0.141
 82300,-0.34384173,0.28187645,0.04985671,0.65802992,0.00179775,-0.00095
 779,-0.00035078,0.00474951,-0.00121734,0.00103813,-0.00013279,-0.00038
 681,-0.00007855,0.00020589,-0.00006319,0.00016652,-0.00045554,-0.00060
 755,0.00196176,-0.07732712,0.04538944,-0.08040224,-0.00191090,0.009264
 35,-0.01233755,0.07009695,-0.00203238,-0.00379983,-0.00191380,0.012679
 18,-0.01723573,0.02823940,-0.00028540,0.00008147,-0.00037235,0.0008075
 2,-0.00183692,0.00102559,0.00105891,0.00265249,0.00105566,0.04508171,-
 0.13804861,0.10938756,-0.00632802,0.00889682,-0.01346636,-0.04939689,0
 .14847552,-0.00022803,-0.00004663,0.00141612,-0.00199408,-0.00067452,0
 .00113241,0.00002722,-0.00059887,-0.00013286,0.00003870,0.00031937,0.0
 0016164,0.00173479,-0.00150167,0.00186243,-0.07919405,0.11018596,-0.21
 638155,-0.00957111,0.01662269,-0.01858119,0.09314488,-0.12017797,0.230
 13707,-0.00019411,0.00007100,-0.00007480,0.00893609,-0.00149911,-0.006
 30901,0.00039427,-0.00047656,-0.00029089,-0.00091533,0.00018428,0.0007
 1319,-0.00008720,-0.00080293,-0.00019960,0.00106617,-0.01526484,0.0007
 8885,-0.04106069,-0.02599983,-0.00905843,-0.00474772,0.00024480,0.0031
 8886,0.03271585,-0.00004968,0.00062412,-0.00026304,-0.00196311,0.00212
 597,-0.00146150,0.00008532,0.00058462,0.00011289,-0.00000287,0.0002948
 2,-0.00022278,-0.00044007,-0.00121022,-0.00052694,-0.00005542,-0.01462
 439,0.00308032,-0.02890792,-0.34618768,0.01428280,0.00044596,0.0012210
 5,-0.00137196,0.03260049,0.36672775,0.00001171,0.00046435,0.00016123,-
 0.00632047,-0.00007120,-0.00029113,-0.00018617,-0.00076832,0.00018302,
 0.00056914,0.00022313,-0.00010891,-0.00037900,-0.00170660,-0.00021094,
 -0.00209135,-0.02764123,0.00337777,-0.00933146,0.01964619,-0.05575295,
 0.00330874,-0.00080081,-0.00018172,0.01198892,-0.01263152,0.05051419,0
 .00020220,-0.00022317,-0.00012554,-0.00425859,0.00252333,0.00229058,0.
 00060202,-0.00016496,0.00052432,0.00059285,0.00010237,-0.00010934,0.00
 006629,0.00015241,0.00020259,-0.00243484,0.00720053,-0.01208896,-0.077
 78779,0.04464689,-0.09365222,0.00875365,-0.00282135,-0.00622928,0.0046
 7833,-0.00211466,0.00209417,0.07200080,-0.00203041,-0.00034185,-0.0033
 0141,0.00127629,0.00080218,0.00112419,0.00059147,-0.00002955,-0.000578
 44,0.00073570,0.00120360,0.00124796,0.00044123,-0.00054118,0.00085675,
 -0.00479378,0.01496697,-0.01242046,0.04485230,-0.12444061,0.10894752,-
 0.00283564,-0.00017873,-0.00287300,0.01014729,-0.00924496,0.02364092,-
 0.04915169,0.11841929,-0.00039806,-0.00128957,-0.00030134,0.00241613,0
 .00223601,-0.00095337,0.00052584,-0.00034730,0.00081238,0.00003399,0.0
 0002670,0.00042248,0.00017284,0.00017347,0.00017799,-0.00886496,0.0127
 8031,-0.01713277,-0.09481113,0.10683397,-0.24412993,-0.00608188,-0.002
 99331,0.00060082,-0.00105309,-0.00040897,0.00286401,0.10498145,-0.1162
 4559,0.25989300,0.00022827,0.00009248,0.00010847,0.00040721,0.00013837
 ,0.00021874,-0.00143895,0.00060863,0.00002682,-0.00104856,-0.00028321,
 -0.00024625,0.00012117,0.00021491,0.00009407,-0.00049596,-0.00009824,-
 0.00009041,-0.00020282,0.00012733,0.00035263,0.00028654,0.00002799,-0.
 00009308,0.00000027,-0.00005674,-0.00009291,-0.00045583,0.00026388,0.0
 0006731,0.64602371,-0.00020514,-0.00011399,-0.00009097,0.00001871,0.00
 002589,0.00007672,-0.00120273,0.00026427,0.00054823,-0.00022787,-0.000
 10935,-0.00014325,-0.00012247,0.00002677,-0.00000539,0.00010354,0.0002
 5105,-0.00001345,0.00081399,-0.00039592,-0.00053762,0.00011847,-0.0000
 0591,0.00014679,-0.00021512,0.00009060,0.00033996,-0.00020928,-0.00016
 596,0.00031664,-0.00441934,0.82084268,-0.00022487,-0.00022759,-0.00054
 602,-0.00001417,0.00021099,0.00001493,0.00020093,-0.00019294,0.0000057
 6,0.00006696,0.00004548,-0.00022832,0.00005514,0.00017062,-0.00000063,
 -0.00018127,0.00007763,0.00014271,-0.00012237,0.00001008,0.00006762,0.
 00002128,0.00012516,0.00030140,0.00007768,-0.00015473,0.00031131,0.000
 22356,-0.00025802,-0.00000778,0.10013164,-0.19369210,0.17904353,-0.000
 73032,-0.00033877,0.00027423,0.00006480,-0.00032214,0.00013525,0.00015
 180,-0.00034025,-0.00009381,0.00033248,0.00015301,0.00007260,-0.000077
 65,0.00007347,-0.00004744,-0.00153711,-0.00055643,-0.00001775,-0.00351
 810,0.00045155,0.00083821,-0.00063589,0.00028850,0.00016195,0.00030646
 ,-0.00026458,0.00004632,-0.00056628,0.00015707,0.00058363,-0.12588915,
 0.05206210,-0.02993430,0.64781767,-0.00016924,-0.00004543,0.00005953,0
 .00001069,0.00000106,0.00003836,0.00092433,-0.00026097,-0.00026308,-0.
 00011901,-0.00001838,0.00015646,0.00008730,-0.00000103,0.00003507,-0.0
 0116068,0.00010198,-0.00004494,-0.00010935,0.00024829,0.00033219,-0.00
 010358,-0.00018950,-0.00006666,-0.00015078,0.00010857,-0.00016232,0.00
 029050,0.00003606,-0.00057281,0.05158510,-0.53260061,0.14371192,0.0016
 1111,0.82887481,-0.00002802,0.00001169,0.00010630,-0.00011134,-0.00031
 317,-0.00001095,-0.00025405,0.00024076,0.00020288,0.00004815,0.0000964
 8,0.00035264,-0.00004232,-0.00014961,0.00019304,-0.00010027,-0.0000338
 9,-0.00027819,0.00026961,0.00021885,-0.00017131,-0.00005182,-0.0002069
 1,-0.00018293,-0.00042210,0.00039122,-0.00027665,0.00058867,0.00001051
 ,0.00000400,-0.02988314,0.14396887,-0.08430362,0.09755852,-0.19657554,
 0.18098186,-0.00034261,0.00007624,0.00016222,-0.00007679,0.00006749,0.
 00004047,-0.00017109,0.00003961,-0.00027301,-0.00000890,-0.00000652,0.
 00000648,-0.00006973,0.00000185,-0.00006477,0.00039151,-0.00009136,0.0
 0007821,0.00008688,-0.00008495,-0.00010110,0.00009978,0.00001384,-0.00
 002088,0.00008797,0.00000277,-0.00005055,-0.00023661,0.00002354,0.0000
 3025,-0.28819768,0.08925430,-0.07077107,-0.00054183,-0.00227016,0.0000
 4732,0.29433958,-0.00048981,0.00001660,0.00004428,0.00016154,0.0000132
 8,-0.00000275,-0.00039578,-0.00017820,0.00005889,-0.00022168,0.0000445
 3,-0.00002278,0.00006831,0.00009678,0.00002541,-0.00000721,-0.00006759
 ,0.00003467,0.00013889,-0.00015605,0.00015452,-0.00003115,0.00006606,-
 0.00001368,0.00014036,0.00002201,0.00001992,-0.00007449,-0.00009689,-0
 .00000351,0.08335916,-0.09789220,0.03164762,0.03226444,-0.00496557,0.0
 0801141,-0.09825426,0.09791096,0.00015193,-0.00004518,-0.00008887,-0.0
 0020449,0.00012165,0.00017128,0.00035953,-0.00005017,-0.00010046,-0.00
 000785,-0.00000206,-0.00005210,-0.00014460,0.00001924,0.00001461,-0.00
 009124,0.00011505,0.00010301,0.00011931,-0.00006205,0.00006516,-0.0000
 6013,0.00003311,0.00009437,-0.00000218,-0.00000972,0.00007553,0.000145
 63,-0.00005161,-0.00012111,-0.06872964,0.03288865,-0.05880081,-0.00949
 266,0.00174957,0.00072510,0.07636882,-0.03822377,0.04825087,0.00079741
 ,-0.00012934,-0.00022135,-0.00126041,0.00030366,-0.00007524,-0.0010612
 5,0.00047170,0.00101668,-0.00104539,-0.00040128,-0.00023102,0.00006716
 ,-0.00009249,0.00025913,-0.00038820,0.00044340,-0.00035157,0.00014317,
 0.00013595,0.00008819,-0.00018394,0.00009917,-0.00017893,0.00012800,-0
 .00001148,-0.00024881,-0.00013056,-0.00028101,0.00046751,-0.23374297,-
 0.13985084,0.00191377,0.00549959,0.00473868,-0.00086256,-0.01064261,-0
 .01685878,0.00193228,0.23620501,0.00028205,0.00017243,0.00030771,-0.00
 005043,0.00000750,-0.00003708,0.00085209,-0.00006218,-0.00054837,-0.00
 038406,-0.00032376,-0.00007168,-0.00007532,-0.00002948,-0.00002157,0.0
 0023761,-0.00008269,0.00023955,-0.00041960,-0.00020842,0.00003226,0.00
 002227,-0.00008073,0.00000871,0.00020816,-0.00010235,0.00005147,0.0004
 2609,-0.00021661,-0.00067175,-0.13429762,-0.17277007,0.01167202,-0.028
 33047,-0.01716907,0.00030181,0.00958296,0.00953120,0.00017729,0.150933
 35,0.18219321,0.00019866,-0.00025821,0.00015174,-0.00015389,0.00035533
 ,-0.00005412,0.00101323,-0.00049763,-0.00075635,-0.00008758,-0.0000088
 7,-0.00017265,0.00002978,0.00011769,-0.00011659,-0.00007549,0.00015430
 ,-0.00008290,0.00013997,-0.00037214,0.00010771,-0.00001939,0.00001631,
 -0.00000334,-0.00004330,0.00003019,0.00005962,0.00004532,0.00001155,-0
 .00035742,-0.00082652,0.00906920,-0.03967116,0.00840936,0.00702002,0.0
 0255332,-0.00496677,-0.00455471,0.00385043,-0.00311691,-0.01372380,0.0
 2860830,-0.00048994,-0.00089253,-0.00014272,-0.00170759,-0.00107591,0.
 00011609,-0.00033610,-0.00043931,0.00054942,-0.00020814,-0.00026931,-0
 .00003675,-0.00017364,0.00010613,0.00001143,0.00259598,-0.00074745,-0.
 00066242,-0.00110085,0.00133008,0.00120143,-0.00071735,0.00060535,-0.0
 0085689,-0.00133837,0.00075936,0.00077248,-0.00062249,0.00056478,0.001
 69908,-0.00244813,-0.00005722,-0.00104555,-0.29277296,0.08409687,-0.07
 000204,0.00097269,0.00001040,-0.00231025,0.00470977,0.00064996,0.00182
 520,0.30595433,-0.00000118,-0.00030970,-0.00015320,-0.00017650,-0.0002
 3884,0.00012463,-0.00020027,-0.00057033,0.00063798,-0.00004664,-0.0001
 4648,0.00008427,0.00003705,-0.00011755,-0.00003068,0.00000112,0.000275
 84,0.00014955,0.00063913,-0.00044550,-0.00051750,0.00011917,-0.0000351
 5,0.00007149,0.00079322,-0.00062453,-0.00064031,-0.00069487,-0.0001128
 2,0.00029609,0.03136346,-0.00515503,0.00797854,0.07799055,-0.09435564,
 0.02977184,-0.00018041,-0.00320086,0.00454565,-0.00000409,0.00218131,-
 0.00210857,-0.09361300,0.09292314,0.00022861,0.00046606,0.00013353,-0.
 00004276,-0.00013833,0.00004221,0.00021672,0.00042702,-0.00055280,-0.0
 0000726,0.00001754,-0.00003680,0.00013697,0.00004308,-0.00002263,0.000
 71749,0.00038056,0.00063895,0.00210002,-0.00066786,-0.00154891,-0.0001
 8746,0.00009779,-0.00021460,0.00065521,-0.00076891,-0.00059337,0.00107
 774,-0.00021905,-0.00174762,-0.00949753,0.00232735,0.00048439,-0.07071
 014,0.03108583,-0.05886458,-0.00199572,0.00432309,0.01194868,0.0021127
 2,-0.00232722,-0.00591175,0.07416041,-0.03534974,0.05223137,0.00018335
 ,0.00006041,-0.00001787,-0.00008266,-0.00001238,0.00008490,0.00003488,
 0.00007910,-0.00016151,0.00009656,-0.00003227,-0.00003231,-0.00004147,
 -0.00006490,-0.00001133,-0.00030087,-0.00000860,0.00034637,-0.00040658
 ,-0.00019625,-0.00009652,0.00012117,-0.00004294,0.00006994,0.00003004,
 -0.00002737,-0.00009076,-0.00040316,0.00003897,0.00023112,0.00685288,0
 .00413893,-0.00039739,-0.22790351,-0.13926178,0.00324539,0.00430945,0.
 00019008,0.00196553,0.00090523,0.00036297,-0.00237167,-0.01231721,-0.0
 1602675,0.00103499,0.22892190,-0.00018639,-0.00008290,0.00018555,-0.00
 009264,0.00000375,-0.00002046,0.00019395,-0.00004978,-0.00013972,-0.00
 001554,0.00006913,0.00002104,-0.00020862,-0.00002679,-0.00005605,0.000
 84642,0.00004133,-0.00000275,0.00051288,-0.00001960,-0.00016905,0.0002
 4029,0.00001772,-0.00003006,0.00001958,0.00019462,0.00003636,0.0001123
 5,-0.00005893,-0.00013040,-0.02862615,-0.01229221,-0.00112469,-0.13489
 916,-0.17976456,0.01425568,0.00182506,-0.00114405,-0.00120565,0.000503
 37,-0.00304028,0.00474935,0.00897181,0.00993214,0.00030279,0.15080278,
 0.18622041,0.00010828,0.00011666,0.00014985,-0.00010797,-0.00005103,0.
 00009324,0.00008500,0.00012255,-0.00007573,-0.00006322,-0.00003342,0.0
 0015359,-0.00006796,-0.00004174,0.00010217,-0.00049876,-0.00010550,0.0
 0007751,-0.00006015,0.00013392,0.00006106,-0.00007149,-0.00004908,-0.0
 0002809,0.00004068,-0.00007735,-0.00013100,0.00003133,0.00010820,-0.00
 002333,0.00845979,0.00480035,0.00318668,0.00221603,0.01349640,-0.04103
 092,0.00151012,-0.00149861,-0.00613569,-0.00250388,0.00461066,0.011795
 16,-0.00527891,-0.00486004,0.00401391,-0.00379889,-0.01667196,0.027791
 59\\0.00000048,0.00000902,-0.00000775,0.00000170,0.00000060,0.00000740
 ,-0.00000693,0.00000055,-0.00000695,0.00000284,-0.00000048,0.00000138,
 -0.00000070,-0.00000211,0.00000134,0.00000968,0.00000243,0.00001124,-0
 .00000445,-0.00000918,-0.00000349,-0.00000099,-0.00000330,-0.00000194,
 -0.00000074,0.00000026,-0.00000221,-0.00000134,0.00000394,0.00000309,0
 .00000342,-0.00001050,0.00000524,0.00000127,-0.00000009,0.00000379,0.0
 0000081,-0.00000066,-0.00000203,0.00000184,0.00000380,-0.00000113,-0.0
 0000635,0.00000594,-0.00000837,-0.00000054,-0.00000022,0.00000039\\\@


 ON INDUCTION, OR "WHY DO YOU BELIEVE THE SUN WILL RISE TOMORROW?":

 ... THE FARMER WHO HAS FED THE CHICKEN EVERY DAY THROUGHOUT ITS
 LIFE AT LAST WRINGS ITS NECK INSTEAD, SHOWING THAT MORE REFINED VIEWS
 AS TO THE UNIFORMITY OF NATURE WOULD HAVE BEEN USEFUL TO THE CHICKEN.

                               -- BERTRAND RUSSELL
 Job cpu time:       0 days  0 hours  0 minutes  0.8 seconds.
 Elapsed time:       0 days  0 hours  0 minutes 15.4 seconds.
 File lengths (MBytes):  RWF=     22 Int=      0 D2E=      0 Chk=      2 Scr=      2
 Normal termination of Gaussian 16 at Mon May 26 08:15:44 2025.
