 Entering Gaussian System, Link 0=/mlatom/software/Gaussian/g16-avx2/g16
 Input=gaussian.com
 Output=gaussian.log
 Initial command:
 /mlatom/software/Gaussian/g16-avx2/l1.exe "/mlatom/home/huangyh/projects/delta_learning/paper/revision1/Starting_from_ub3lyp_d4/da/b3lyp/ADL/ts1/Gau-157759.inp" -scrdir="/mlatom/home/huangyh/projects/delta_learning/paper/revision1/Starting_from_ub3lyp_d4/da/b3lyp/ADL/ts1/"
 Entering Link 1 = /mlatom/software/Gaussian/g16-avx2/l1.exe PID=    157760.
  
 Copyright (c) 1988,1990,1992,1993,1995,1998,2003,2009,2016,
            Gaussian, Inc.  All Rights Reserved.
  
 This is part of the Gaussian(R) 16 program.  It is based on
 the Gaussian(R) 09 system (copyright 2009, Gaussian, Inc.),
 the Gaussian(R) 03 system (copyright 2003, Gaussian, Inc.),
 the Gaussian(R) 98 system (copyright 1998, Gaussian, Inc.),
 the Gaussian(R) 94 system (copyright 1995, Gaussian, Inc.),
 the Gaussian 92(TM) system (copyright 1992, Gaussian, Inc.),
 the Gaussian 90(TM) system (copyright 1990, Gaussian, Inc.),
 the Gaussian 88(TM) system (copyright 1988, Gaussian, Inc.),
 the Gaussian 86(TM) system (copyright 1986, Carnegie Mellon
 University), and the Gaussian 82(TM) system (copyright 1983,
 Carnegie Mellon University). Gaussian is a federally registered
 trademark of Gaussian, Inc.
  
 This software contains proprietary and confidential information,
 including trade secrets, belonging to Gaussian, Inc.
  
 This software is provided under written license and may be
 used, copied, transmitted, or stored only in accord with that
 written license.
  
 The following legend is applicable only to US Government
 contracts under FAR:
  
                    RESTRICTED RIGHTS LEGEND
  
 Use, reproduction and disclosure by the US Government is
 subject to restrictions as set forth in subparagraphs (a)
 and (c) of the Commercial Computer Software - Restricted
 Rights clause in FAR 52.227-19.
  
 Gaussian, Inc.
 340 Quinnipiac St., Bldg. 40, Wallingford CT 06492
  
  
 ---------------------------------------------------------------
 Warning -- This program may not be used in any manner that
 competes with the business of Gaussian, Inc. or will provide
 assistance to any competitor of Gaussian, Inc.  The licensee
 of this program is prohibited from giving any competitor of
 Gaussian, Inc. access to this program.  By using this program,
 the user acknowledges that Gaussian, Inc. is engaged in the
 business of creating and licensing software in the field of
 computational chemistry and represents and warrants to the
 licensee that it is not a competitor of Gaussian, Inc. and that
 it will not use this program in any manner prohibited above.
 ---------------------------------------------------------------
  

 Cite this work as:
 Gaussian 16, Revision A.03,
 M. J. Frisch, G. W. Trucks, H. B. Schlegel, G. E. Scuseria, 
 M. A. Robb, J. R. Cheeseman, G. Scalmani, V. Barone, 
 G. A. Petersson, H. Nakatsuji, X. Li, M. Caricato, A. V. Marenich, 
 J. Bloino, B. G. Janesko, R. Gomperts, B. Mennucci, H. P. Hratchian, 
 J. V. Ortiz, A. F. Izmaylov, J. L. Sonnenberg, D. Williams-Young, 
 F. Ding, F. Lipparini, F. Egidi, J. Goings, B. Peng, A. Petrone, 
 T. Henderson, D. Ranasinghe, V. G. Zakrzewski, J. Gao, N. Rega, 
 G. Zheng, W. Liang, M. Hada, M. Ehara, K. Toyota, R. Fukuda, 
 J. Hasegawa, M. Ishida, T. Nakajima, Y. Honda, O. Kitao, H. Nakai, 
 T. Vreven, K. Throssell, J. A. Montgomery, Jr., J. E. Peralta, 
 F. Ogliaro, M. J. Bearpark, J. J. Heyd, E. N. Brothers, K. N. Kudin, 
 V. N. Staroverov, T. A. Keith, R. Kobayashi, J. Normand, 
 K. Raghavachari, A. P. Rendell, J. C. Burant, S. S. Iyengar, 
 J. Tomasi, M. Cossi, J. M. Millam, M. Klene, C. Adamo, R. Cammi, 
 J. W. Ochterski, R. L. Martin, K. Morokuma, O. Farkas, 
 J. B. Foresman, and D. J. Fox, Gaussian, Inc., Wallingford CT, 2016.
 
 ******************************************
 Gaussian 16:  ES64L-G16RevA.03 25-Dec-2016
                25-May-2025 
 ******************************************
 %nproc=1
 Will use up to    1 processors via shared memory.
 ----------------------------------------------------------------------
 #p Freq external='/mlatom/software/miniconda3/bin/python /mlatom/softw
 are/mlatom_xacs/mlatom/interfaces/gaussian_interface.py model_predict_
 kwargs'
 ----------------------------------------------------------------------
 1/10=4,18=10,30=1,38=1/1,3;
 2/12=2,17=6,18=5,40=1/2;
 3/11=9,25=1,30=1,41=9900000,43=2,71=2,140=1/1;
 4/20=17,22=2,24=3,113=1,114=1/2;
 6/7=2,8=2,9=2,10=2/1;
 7/8=1,25=1,44=-1/16;
 1/10=4,18=10,30=1/3;
 99//99;
 Leave Link    1 at Sun May 25 11:50:39 2025, MaxMem=           0 cpu:               0.0 elap:               0.0
 (Enter /mlatom/software/Gaussian/g16-avx2/l101.exe)
 ------------------------------------
 2a5a1222-06ac-4218-b556-3f28011f98ad
 ------------------------------------
 Symbolic Z-matrix:
 Charge =  0 Multiplicity = 1
 C                     0.44405  -1.43396   0.48871 
 C                     1.32319  -0.7032   -0.28899 
 H                     0.12832  -1.05783   1.45501 
 H                     0.38744  -2.51472   0.38368 
 H                     1.87487  -1.21307  -1.07745 
 C                     1.32333   0.70298  -0.289 
 C                     0.44435   1.43392   0.4887 
 H                     1.87513   1.21275  -1.07744 
 H                     0.38795   2.51469   0.3837 
 H                     0.12847   1.05785   1.45498 
 C                    -1.57456  -0.6931   -0.22747 
 C                    -1.5745    0.69333  -0.22751 
 H                    -2.08038  -1.23812   0.5646 
 H                    -1.46845  -1.23696  -1.15912 
 H                    -1.46828   1.23715  -1.15917 
 H                    -2.0802    1.23844   0.56457 
 
 ITRead=  0  0  0  0  0  0  0  0  0  0  0  0  0  0  0  0
 MicOpt= -1 -1 -1 -1 -1 -1 -1 -1 -1 -1 -1 -1 -1 -1 -1 -1
 NAtoms=     16 NQM=       16 NQMF=       0 NMMI=      0 NMMIF=      0
                NMic=       0 NMicF=      0.
                    Isotopes and Nuclear Properties:
 (Nuclear quadrupole moments (NQMom) in fm**2, nuclear magnetic moments (NMagM)
  in nuclear magnetons)

  Atom         1           2           3           4           5           6           7           8           9          10
 IAtWgt=          12          12           1           1           1          12          12           1           1           1
 AtmWgt=  12.0000000  12.0000000   1.0078250   1.0078250   1.0078250  12.0000000  12.0000000   1.0078250   1.0078250   1.0078250
 NucSpn=           0           0           1           1           1           0           0           1           1           1
 AtZEff=  -0.0000000  -0.0000000  -0.0000000  -0.0000000  -0.0000000  -0.0000000  -0.0000000  -0.0000000  -0.0000000  -0.0000000
 NQMom=    0.0000000   0.0000000   0.0000000   0.0000000   0.0000000   0.0000000   0.0000000   0.0000000   0.0000000   0.0000000
 NMagM=    0.0000000   0.0000000   2.7928460   2.7928460   2.7928460   0.0000000   0.0000000   2.7928460   2.7928460   2.7928460
 AtZNuc=   6.0000000   6.0000000   1.0000000   1.0000000   1.0000000   6.0000000   6.0000000   1.0000000   1.0000000   1.0000000

  Atom        11          12          13          14          15          16
 IAtWgt=          12          12           1           1           1           1
 AtmWgt=  12.0000000  12.0000000   1.0078250   1.0078250   1.0078250   1.0078250
 NucSpn=           0           0           1           1           1           1
 AtZEff=  -0.0000000  -0.0000000  -0.0000000  -0.0000000  -0.0000000  -0.0000000
 NQMom=    0.0000000   0.0000000   0.0000000   0.0000000   0.0000000   0.0000000
 NMagM=    0.0000000   0.0000000   2.7928460   2.7928460   2.7928460   2.7928460
 AtZNuc=   6.0000000   6.0000000   1.0000000   1.0000000   1.0000000   1.0000000
 Leave Link  101 at Sun May 25 11:50:40 2025, MaxMem=   104857600 cpu:               0.2 elap:               0.3
 (Enter /mlatom/software/Gaussian/g16-avx2/l103.exe)

 GradGradGradGradGradGradGradGradGradGradGradGradGradGradGradGradGradGrad
 Berny optimization.
 Initialization pass.
 Trust Radius=3.00D-01 FncErr=1.00D-07 GrdErr=1.00D-07 EigMax=2.50D+02 EigMin=1.00D-04
 Number of steps in this run=      2 maximum allowed number of steps=      2.
 GradGradGradGradGradGradGradGradGradGradGradGradGradGradGradGradGradGrad

 Leave Link  103 at Sun May 25 11:50:40 2025, MaxMem=   104857600 cpu:               0.0 elap:               0.3
 (Enter /mlatom/software/Gaussian/g16-avx2/l202.exe)
                          Input orientation:                          
 ---------------------------------------------------------------------
 Center     Atomic      Atomic             Coordinates (Angstroms)
 Number     Number       Type             X           Y           Z
 ---------------------------------------------------------------------
      1          6           0        0.444054   -1.433959    0.488706
      2          6           0        1.323189   -0.703202   -0.288994
      3          1           0        0.128321   -1.057830    1.455005
      4          1           0        0.387435   -2.514717    0.383682
      5          1           0        1.874873   -1.213071   -1.077450
      6          6           0        1.323326    0.702983   -0.289000
      7          6           0        0.444346    1.433922    0.488703
      8          1           0        1.875133    1.212745   -1.077439
      9          1           0        0.387947    2.514693    0.383702
     10          1           0        0.128468    1.057851    1.454979
     11          6           0       -1.574560   -0.693103   -0.227465
     12          6           0       -1.574499    0.693329   -0.227509
     13          1           0       -2.080384   -1.238116    0.564602
     14          1           0       -1.468448   -1.236962   -1.159124
     15          1           0       -1.468275    1.237153   -1.159174
     16          1           0       -2.080203    1.238436    0.564569
 ---------------------------------------------------------------------
                    Distance matrix (angstroms):
                    1          2          3          4          5
     1  C    0.000000
     2  C    1.382644   0.000000
     3  H    1.083926   2.143597   0.000000
     4  H    1.087323   2.147025   1.826853   0.000000
     5  H    2.132811   1.089029   3.080240   2.457979   0.000000
     6  C    2.438128   1.406184   2.751373   3.417891   2.144090
     7  C    2.867882   2.438130   2.691178   3.950445   3.392023
     8  H    3.392026   2.144094   3.823629   4.271076   2.425816
     9  H    3.950446   3.417900   3.738719   5.029409   4.271082
    10  H    2.691170   2.751383   2.115682   3.738714   3.823639
    11  C    2.266400   2.898420   2.421474   2.746124   3.590464
    12  C    3.018754   3.217247   2.965975   3.809763   4.031741
    13  H    2.533161   3.549518   2.388242   2.784344   4.282643
    14  H    2.532156   2.972418   3.068458   2.730789   3.344404
    15  H    3.675235   3.509197   3.827532   4.461008   4.145711
    16  H    3.676863   4.010188   3.308065   4.495343   4.934445
                    6          7          8          9         10
     6  C    0.000000
     7  C    1.382643   0.000000
     8  H    1.089029   2.132809   0.000000
     9  H    2.147034   1.087323   2.457991   0.000000
    10  H    2.143613   1.083926   3.080255   1.826842   0.000000
    11  C    3.217232   3.018793   4.031760   3.809844   2.965933
    12  C    2.898494   2.266533   3.590562   2.746296   2.421516
    13  H    4.010205   3.676930   4.934484   4.495438   3.308061
    14  H    3.509203   3.675288   4.145754   4.461102   3.827512
    15  H    2.972470   2.532259   3.344496   2.730959   3.068474
    16  H    3.549550   2.533243   4.282702   2.784477   2.388236
                   11         12         13         14         15
    11  C    0.000000
    12  C    1.386432   0.000000
    13  H    1.086402   2.147985   0.000000
    14  H    1.083989   2.145968   1.829126   0.000000
    15  H    2.145989   1.083988   3.077831   2.474115   0.000000
    16  H    2.147984   1.086400   2.476552   3.077817   1.829138
                   16
    16  H    0.000000
 Stoichiometry    C6H10
 Framework group  C1[X(C6H10)]
 Deg. of freedom    42
 Full point group                 C1      NOp   1
 Largest Abelian subgroup         C1      NOp   1
 Largest concise Abelian subgroup C1      NOp   1
                         Standard orientation:                         
 ---------------------------------------------------------------------
 Center     Atomic      Atomic             Coordinates (Angstroms)
 Number     Number       Type             X           Y           Z
 ---------------------------------------------------------------------
      1          6           0       -0.444054    1.433959    0.488706
      2          6           0       -1.323189    0.703202   -0.288994
      3          1           0       -0.128321    1.057830    1.455005
      4          1           0       -0.387435    2.514717    0.383682
      5          1           0       -1.874873    1.213071   -1.077450
      6          6           0       -1.323326   -0.702983   -0.289000
      7          6           0       -0.444346   -1.433922    0.488703
      8          1           0       -1.875133   -1.212745   -1.077439
      9          1           0       -0.387947   -2.514693    0.383702
     10          1           0       -0.128468   -1.057851    1.454979
     11          6           0        1.574560    0.693103   -0.227465
     12          6           0        1.574499   -0.693329   -0.227509
     13          1           0        2.080384    1.238116    0.564602
     14          1           0        1.468448    1.236962   -1.159124
     15          1           0        1.468275   -1.237153   -1.159174
     16          1           0        2.080203   -1.238436    0.564569
 ---------------------------------------------------------------------
 Rotational constants (GHZ):           4.3540661           3.4634447           2.2599492
 Leave Link  202 at Sun May 25 11:50:40 2025, MaxMem=   104857600 cpu:               0.0 elap:               0.3
 (Enter /mlatom/software/Gaussian/g16-avx2/l301.exe)
 Standard basis: STO-3G (5D, 7F)
 Ernie: Thresh=  0.10000D-02 Tol=  0.10000D-05 Strict=F.
 There are    40 symmetry adapted cartesian basis functions of A   symmetry.
 There are    40 symmetry adapted basis functions of A   symmetry.
    40 basis functions,   120 primitive gaussians,    40 cartesian basis functions
    23 alpha electrons       23 beta electrons
       nuclear repulsion energy       224.1631117132 Hartrees.
 IExCor=    0 DFT=F Ex=HF Corr=None ExCW=0 ScaHFX=  1.000000
 ScaDFX=  1.000000  1.000000  1.000000  1.000000 ScalE2=  1.000000  1.000000
 IRadAn=      5 IRanWt=     -1 IRanGd=            0 ICorTp=0 IEmpDi=  4
 NAtoms=   16 NActive=   16 NUniq=   16 SFac= 1.00D+00 NAtFMM=   60 NAOKFM=F Big=F
 Integral buffers will be    131072 words long.
 Raffenetti 1 integral format.
 Two-electron integral symmetry is turned on.
 Leave Link  301 at Sun May 25 11:50:41 2025, MaxMem=   104857600 cpu:               0.1 elap:               0.1
 (Enter /mlatom/software/Gaussian/g16-avx2/l402.exe)
 External calculation of energy, first and second derivatives.
 Running external command "/mlatom/software/miniconda3/bin/python /mlatom/software/mlatom_xacs/mlatom/interfaces/gaussian_interface.py model_predict_kwargs R"
         input file       "/mlatom/home/huangyh/projects/delta_learning/paper/revision1/Starting_from_ub3lyp_d4/da/b3lyp/ADL/ts1/Gau-157760.EIn"
         output file      "/mlatom/home/huangyh/projects/delta_learning/paper/revision1/Starting_from_ub3lyp_d4/da/b3lyp/ADL/ts1/Gau-157760.EOu"
         message file     "/mlatom/home/huangyh/projects/delta_learning/paper/revision1/Starting_from_ub3lyp_d4/da/b3lyp/ADL/ts1/Gau-157760.EMs"
         fchk file        "/mlatom/home/huangyh/projects/delta_learning/paper/revision1/Starting_from_ub3lyp_d4/da/b3lyp/ADL/ts1/Gau-157760.EFC"
         mat. el file     "/mlatom/home/huangyh/projects/delta_learning/paper/revision1/Starting_from_ub3lyp_d4/da/b3lyp/ADL/ts1/Gau-157760.EUF"
model loaded from /mlatom/home/huangyh/projects/delta_learning/paper/revision1/Starting_from_ub3lyp_d4/da/b3lyp/ADL_main_model_ethene_butadiene.npz
 Recovered energy= -234.543950195     dipole=      0.340571753894      0.000000000000      0.167744296694
 Energy=    -234.543950     NIter=   0.
 Dipole moment=       0.340572       0.000000       0.167744
 Leave Link  402 at Sun May 25 11:50:48 2025, MaxMem=   104857600 cpu:               0.1 elap:               7.5
 (Enter /mlatom/software/Gaussian/g16-avx2/l601.exe)
 Leave Link  601 at Sun May 25 11:50:48 2025, MaxMem=   104857600 cpu:               0.1 elap:               0.1
 (Enter /mlatom/software/Gaussian/g16-avx2/l716.exe)
 Dipole        = 3.40571754D-01 0.00000000D+00 1.67744297D-01
 Full mass-weighted force constant matrix:
 Low frequencies --- -515.6812 -129.1638 -110.2809  -99.4376    0.0331    0.6679
 Low frequencies ---    1.3766  135.0414  178.8164
 ******    1 imaginary frequencies (negative Signs) ****** 
 Diagonal vibrational polarizability:
        0.0000000       0.0000000       0.0000000
 Harmonic frequencies (cm**-1), IR intensities (KM/Mole), Raman scattering
 activities (A**4/AMU), depolarization ratios for plane and unpolarized
 incident light, reduced masses (AMU), force constants (mDyne/A),
 and normal coordinates:
                      1                      2                      3
                      A                      A                      A
 Frequencies --   -515.6805               130.7172               178.6243
 Red. masses --      8.1378                 1.9915                 4.3359
 Frc consts  --      1.2750                 0.0200                 0.0815
 IR Inten    --      0.0000                 0.0000                 0.0000
  Atom  AN      X      Y      Z        X      Y      Z        X      Y      Z
     1   6    -0.35   0.12   0.11    -0.02   0.02  -0.06    -0.24   0.15   0.06
     2   6    -0.01   0.07   0.02     0.03  -0.03  -0.07    -0.13   0.03   0.07
     3   1     0.17  -0.05  -0.14    -0.12   0.09  -0.00    -0.01   0.18  -0.01
     4   1    -0.25   0.10   0.09    -0.00   0.01  -0.15    -0.36   0.16   0.02
     5   1     0.09  -0.01  -0.10     0.07  -0.09  -0.13    -0.26  -0.01   0.13
     6   6    -0.01  -0.07   0.02    -0.03  -0.03   0.07     0.13   0.03  -0.07
     7   6    -0.35  -0.12   0.11     0.02   0.02   0.06     0.24   0.15  -0.06
     8   1     0.09   0.01  -0.10    -0.07  -0.09   0.13     0.26  -0.01  -0.13
     9   1    -0.25  -0.10   0.09     0.00   0.01   0.15     0.36   0.16  -0.02
    10   1     0.17   0.05  -0.14     0.12   0.09   0.00     0.01   0.18   0.01
    11   6     0.38  -0.10  -0.13     0.06   0.01   0.17     0.11  -0.18  -0.02
    12   6     0.38   0.10  -0.13    -0.06   0.01  -0.17    -0.11  -0.18   0.02
    13   1    -0.10   0.04   0.07     0.03  -0.24   0.36     0.08  -0.21   0.02
    14   1    -0.10   0.04   0.02     0.18   0.26   0.30     0.08  -0.15   0.00
    15   1    -0.10  -0.04   0.02    -0.18   0.26  -0.30    -0.08  -0.15  -0.00
    16   1    -0.10  -0.04   0.07    -0.03  -0.24  -0.36    -0.08  -0.21  -0.02
                      4                      5                      6
                      A                      A                      A
 Frequencies --    275.9290               386.9022               395.8861
 Red. masses --      2.6940                 2.4783                 2.6367
 Frc consts  --      0.1209                 0.2186                 0.2435
 IR Inten    --      0.0000                 0.0000                 0.0000
  Atom  AN      X      Y      Z        X      Y      Z        X      Y      Z
     1   6    -0.05  -0.02   0.15     0.01  -0.22   0.04     0.09  -0.04  -0.06
     2   6     0.16  -0.00  -0.08    -0.08  -0.00  -0.06    -0.07  -0.06   0.10
     3   1    -0.14  -0.10   0.16    -0.01  -0.48  -0.05     0.33  -0.04  -0.14
     4   1    -0.05  -0.01   0.24     0.06  -0.20   0.35    -0.07  -0.03  -0.01
     5   1     0.39   0.01  -0.23    -0.12   0.12   0.05    -0.22  -0.02   0.23
     6   6     0.16   0.00  -0.08    -0.08   0.00  -0.06     0.07  -0.06  -0.10
     7   6    -0.05   0.02   0.15     0.01   0.22   0.04    -0.09  -0.04   0.06
     8   1     0.39  -0.01  -0.23    -0.12  -0.12   0.05     0.22  -0.02  -0.23
     9   1    -0.05   0.01   0.24     0.06   0.20   0.35     0.07  -0.03   0.01
    10   1    -0.14   0.10   0.16    -0.01   0.48  -0.05    -0.33  -0.03   0.14
    11   6    -0.11  -0.00  -0.07     0.06   0.00  -0.01     0.19   0.09  -0.03
    12   6    -0.11   0.00  -0.07     0.06  -0.00  -0.01    -0.19   0.09   0.03
    13   1     0.01   0.01  -0.15     0.01   0.01   0.02     0.26  -0.00  -0.01
    14   1    -0.28  -0.00  -0.05     0.09   0.01  -0.02     0.33   0.11  -0.04
    15   1    -0.28   0.00  -0.05     0.09  -0.01  -0.02    -0.33   0.11   0.04
    16   1     0.01  -0.01  -0.15     0.01  -0.01   0.02    -0.26  -0.00   0.01
                      7                      8                      9
                      A                      A                      A
 Frequencies --    444.1068               578.2879               616.1154
 Red. masses --      3.4924                 1.8065                 1.1136
 Frc consts  --      0.4058                 0.3559                 0.2491
 IR Inten    --      0.0000                 0.0000                 0.0000
  Atom  AN      X      Y      Z        X      Y      Z        X      Y      Z
     1   6    -0.10  -0.02   0.10     0.03   0.05   0.07    -0.00  -0.02  -0.01
     2   6     0.15  -0.01  -0.15     0.09  -0.10   0.09    -0.04  -0.00  -0.01
     3   1    -0.16  -0.20   0.05     0.04   0.47   0.24    -0.08   0.05   0.04
     4   1    -0.08  -0.01   0.24    -0.06   0.02  -0.33     0.09  -0.03  -0.12
     5   1     0.29  -0.04  -0.26     0.25   0.00   0.05     0.02  -0.00  -0.05
     6   6    -0.15  -0.01   0.15    -0.09  -0.10  -0.09    -0.04   0.00  -0.01
     7   6     0.10  -0.02  -0.10    -0.03   0.05  -0.07    -0.00   0.02  -0.01
     8   1    -0.29  -0.04   0.26    -0.25   0.00  -0.05     0.02   0.00  -0.05
     9   1     0.08  -0.01  -0.24     0.06   0.02   0.33     0.09   0.03  -0.12
    10   1     0.16  -0.20  -0.05    -0.04   0.47  -0.24    -0.08  -0.05   0.04
    11   6     0.19   0.05  -0.10     0.00   0.01  -0.01     0.03   0.00   0.04
    12   6    -0.19   0.05   0.10    -0.00   0.01   0.01     0.03  -0.00   0.04
    13   1     0.20   0.09  -0.13     0.05   0.02  -0.04     0.45   0.04  -0.25
    14   1     0.13  -0.00  -0.13    -0.03  -0.01  -0.02    -0.43  -0.06   0.06
    15   1    -0.13  -0.00   0.13     0.03  -0.01   0.02    -0.43   0.06   0.06
    16   1    -0.20   0.09   0.13    -0.05   0.02   0.04     0.45  -0.04  -0.25
                     10                     11                     12
                      A                      A                      A
 Frequencies --    684.7297               767.3134               823.0480
 Red. masses --      1.1829                 1.4703                 1.1267
 Frc consts  --      0.3268                 0.5100                 0.4497
 IR Inten    --      0.0000                 0.0000                 0.0000
  Atom  AN      X      Y      Z        X      Y      Z        X      Y      Z
     1   6    -0.00  -0.04   0.01    -0.02  -0.05   0.02     0.00   0.01   0.03
     2   6    -0.05   0.00   0.04    -0.11   0.04   0.03    -0.03  -0.02  -0.01
     3   1    -0.14   0.09   0.12    -0.33   0.07   0.17    -0.31   0.14   0.19
     4   1     0.35  -0.10  -0.28     0.41  -0.10  -0.26    -0.25   0.03   0.06
     5   1     0.35  -0.04  -0.27     0.17  -0.03  -0.22     0.02  -0.03  -0.05
     6   6    -0.05  -0.00   0.04     0.11   0.04  -0.03    -0.03   0.02  -0.01
     7   6    -0.00   0.04   0.01     0.02  -0.05  -0.02     0.00  -0.01   0.03
     8   1     0.35   0.04  -0.27    -0.17  -0.03   0.21     0.02   0.03  -0.05
     9   1     0.35   0.10  -0.28    -0.41  -0.10   0.26    -0.25  -0.03   0.06
    10   1    -0.14  -0.09   0.12     0.33   0.07  -0.17    -0.31  -0.14   0.19
    11   6     0.01  -0.01  -0.03     0.04   0.02  -0.01     0.02   0.04  -0.03
    12   6     0.01   0.01  -0.03    -0.04   0.02   0.01     0.02  -0.04  -0.03
    13   1    -0.16  -0.00   0.08     0.10   0.01  -0.04     0.31  -0.16  -0.06
    14   1     0.09   0.02  -0.01     0.02  -0.01  -0.03     0.37   0.07  -0.06
    15   1     0.09  -0.02  -0.01    -0.02  -0.01   0.03     0.37  -0.07  -0.06
    16   1    -0.16   0.00   0.08    -0.10   0.01   0.04     0.31   0.16  -0.06
                     13                     14                     15
                      A                      A                      A
 Frequencies --    859.5813               887.0791               942.2160
 Red. masses --      1.0302                 1.1632                 1.3515
 Frc consts  --      0.4485                 0.5393                 0.7069
 IR Inten    --      0.0000                 0.0000                 0.0000
  Atom  AN      X      Y      Z        X      Y      Z        X      Y      Z
     1   6     0.00   0.00   0.00    -0.04  -0.00   0.02     0.03   0.07  -0.05
     2   6    -0.00  -0.01   0.00     0.02  -0.00  -0.01    -0.06   0.05   0.04
     3   1    -0.10   0.03   0.05     0.27  -0.04  -0.11     0.06  -0.25  -0.18
     4   1    -0.08   0.01   0.03     0.30  -0.05  -0.20    -0.02   0.12   0.41
     5   1     0.01  -0.02  -0.01    -0.07   0.05   0.09     0.30  -0.09  -0.30
     6   6    -0.00   0.01   0.00    -0.02  -0.00   0.01    -0.06  -0.05   0.04
     7   6     0.00  -0.00   0.00     0.04  -0.00  -0.02     0.03  -0.07  -0.05
     8   1     0.01   0.02  -0.01     0.07   0.05  -0.09     0.30   0.09  -0.30
     9   1    -0.08  -0.01   0.03    -0.30  -0.05   0.20    -0.02  -0.12   0.41
    10   1    -0.10  -0.03   0.05    -0.27  -0.04   0.11     0.06   0.25  -0.18
    11   6     0.02   0.01   0.02     0.06  -0.01  -0.02    -0.01   0.00   0.02
    12   6     0.02  -0.01   0.02    -0.06  -0.01   0.02    -0.01  -0.00   0.02
    13   1    -0.12   0.42  -0.18    -0.34   0.11   0.14     0.10  -0.02  -0.04
    14   1     0.10  -0.43  -0.25    -0.29   0.12   0.10     0.02  -0.02  -0.01
    15   1     0.10   0.43  -0.25     0.29   0.12  -0.10     0.02   0.02  -0.00
    16   1    -0.12  -0.42  -0.18     0.34   0.11  -0.14     0.10   0.02  -0.04
                     16                     17                     18
                      A                      A                      A
 Frequencies --    960.0717               960.6622               995.1529
 Red. masses --      1.3544                 1.1752                 1.1262
 Frc consts  --      0.7355                 0.6390                 0.6571
 IR Inten    --      0.0000                 0.0000                 0.0000
  Atom  AN      X      Y      Z        X      Y      Z        X      Y      Z
     1   6    -0.01   0.09   0.04    -0.03  -0.00   0.02     0.01   0.01  -0.03
     2   6    -0.01   0.06  -0.05     0.03  -0.00  -0.05    -0.03  -0.00   0.03
     3   1    -0.21  -0.14   0.02     0.02   0.02   0.02     0.15  -0.07  -0.10
     4   1     0.55   0.06   0.08     0.20  -0.04  -0.14    -0.13   0.04   0.11
     5   1    -0.26   0.04   0.10    -0.32   0.03   0.22     0.28  -0.06  -0.21
     6   6    -0.01  -0.06  -0.05    -0.03  -0.00   0.05     0.03  -0.00  -0.03
     7   6    -0.01  -0.09   0.04     0.03  -0.00  -0.02    -0.01   0.01   0.03
     8   1    -0.26  -0.04   0.10     0.32   0.03  -0.22    -0.28  -0.06   0.21
     9   1     0.55  -0.06   0.08    -0.19  -0.04   0.14     0.13   0.04  -0.11
    10   1    -0.20   0.14   0.02    -0.02   0.02  -0.01    -0.15  -0.07   0.10
    11   6    -0.01   0.01  -0.00    -0.02   0.01   0.04     0.03  -0.01   0.04
    12   6    -0.01  -0.01  -0.00     0.02   0.01  -0.04    -0.03  -0.01  -0.04
    13   1     0.07  -0.01  -0.04     0.45  -0.04  -0.21     0.23   0.04  -0.12
    14   1     0.12  -0.04  -0.05    -0.18  -0.05   0.02    -0.47   0.02   0.12
    15   1     0.12   0.04  -0.05     0.18  -0.05  -0.02     0.47   0.02  -0.12
    16   1     0.07   0.01  -0.04    -0.44  -0.04   0.21    -0.23   0.04   0.12
                     19                     20                     21
                      A                      A                      A
 Frequencies --   1004.7942              1019.9201              1104.8070
 Red. masses --      1.2350                 1.1659                 1.7853
 Frc consts  --      0.7346                 0.7146                 1.2839
 IR Inten    --      0.0000                 0.0000                 0.0000
  Atom  AN      X      Y      Z        X      Y      Z        X      Y      Z
     1   6     0.06  -0.02  -0.03    -0.05  -0.01   0.03    -0.08  -0.03  -0.06
     2   6     0.01   0.01  -0.01    -0.00  -0.00  -0.01     0.09  -0.11   0.08
     3   1    -0.42   0.12   0.20     0.47   0.02  -0.13    -0.18  -0.29  -0.14
     4   1    -0.22   0.01   0.05     0.09  -0.05  -0.15     0.14  -0.05  -0.03
     5   1    -0.22   0.03   0.16     0.09   0.09  -0.02    -0.13  -0.51  -0.02
     6   6    -0.01   0.01   0.01    -0.00   0.00  -0.01     0.09   0.11   0.08
     7   6    -0.06  -0.02   0.03    -0.05   0.01   0.03    -0.08   0.03  -0.06
     8   1     0.22   0.03  -0.16     0.09  -0.09  -0.02    -0.13   0.51  -0.02
     9   1     0.22   0.01  -0.05     0.09   0.05  -0.15     0.14   0.05  -0.03
    10   1     0.42   0.12  -0.20     0.47  -0.02  -0.13    -0.18   0.29  -0.14
    11   6     0.07  -0.01  -0.01    -0.05  -0.00   0.02    -0.02  -0.01   0.01
    12   6    -0.07  -0.01   0.01    -0.05   0.00   0.02    -0.02   0.01   0.01
    13   1    -0.13   0.09   0.03     0.26  -0.08  -0.11     0.12  -0.06  -0.04
    14   1    -0.31   0.04   0.07     0.31  -0.13  -0.10     0.10  -0.05  -0.03
    15   1     0.31   0.05  -0.07     0.31   0.13  -0.10     0.10   0.05  -0.03
    16   1     0.13   0.09  -0.03     0.26   0.08  -0.11     0.12   0.06  -0.04
                     22                     23                     24
                      A                      A                      A
 Frequencies --   1108.9702              1249.6680              1274.7442
 Red. masses --      1.5794                 1.4109                 1.7990
 Frc consts  --      1.1444                 1.2982                 1.7224
 IR Inten    --      0.0000                 0.0000                 0.0000
  Atom  AN      X      Y      Z        X      Y      Z        X      Y      Z
     1   6     0.03   0.12   0.00    -0.01   0.00  -0.00    -0.00  -0.02  -0.05
     2   6     0.02  -0.09   0.05     0.00  -0.00   0.00     0.03   0.05   0.04
     3   1    -0.24  -0.22  -0.04     0.00  -0.02  -0.01    -0.25  -0.06   0.01
     4   1     0.40   0.13   0.28     0.01   0.00  -0.00    -0.08  -0.02  -0.02
     5   1    -0.12  -0.32  -0.00     0.02   0.03   0.01     0.10   0.31   0.16
     6   6    -0.02  -0.09  -0.05    -0.00  -0.00  -0.00     0.03  -0.05   0.04
     7   6    -0.03   0.12  -0.00     0.01   0.00   0.00    -0.00   0.02  -0.05
     8   1     0.12  -0.32   0.00    -0.02   0.03  -0.01     0.10  -0.31   0.16
     9   1    -0.39   0.13  -0.28    -0.01   0.00   0.00    -0.08   0.02  -0.02
    10   1     0.24  -0.22   0.04    -0.00  -0.02   0.01    -0.25   0.06   0.01
    11   6     0.01   0.00  -0.00     0.04  -0.00   0.13    -0.02  -0.17   0.00
    12   6    -0.01   0.00   0.00    -0.04  -0.00  -0.13    -0.02   0.17   0.00
    13   1    -0.03   0.00   0.02    -0.14   0.47  -0.08     0.07  -0.35   0.06
    14   1    -0.02  -0.01  -0.00     0.09  -0.45  -0.15     0.02  -0.34  -0.09
    15   1     0.02  -0.01   0.00    -0.09  -0.45   0.15     0.02   0.34  -0.09
    16   1     0.03   0.00  -0.02     0.14   0.47   0.08     0.07   0.35   0.06
                     25                     26                     27
                      A                      A                      A
 Frequencies --   1278.0687              1335.6202              1454.8382
 Red. masses --      1.4605                 1.4799                 1.2090
 Frc consts  --      1.4056                 1.5554                 1.5076
 IR Inten    --      0.0000                 0.0000                 0.0000
  Atom  AN      X      Y      Z        X      Y      Z        X      Y      Z
     1   6    -0.06   0.00  -0.09    -0.05  -0.00  -0.06    -0.01  -0.00  -0.02
     2   6     0.05  -0.02   0.08     0.05   0.02   0.06    -0.05  -0.06  -0.05
     3   1    -0.26  -0.25  -0.13    -0.17  -0.21  -0.11     0.10   0.36   0.10
     4   1     0.05  -0.01  -0.04     0.01  -0.02  -0.09     0.23   0.04   0.42
     5   1     0.23   0.45   0.25     0.22   0.44   0.22     0.09   0.30   0.07
     6   6    -0.05  -0.02  -0.08     0.05  -0.02   0.06     0.05  -0.06   0.05
     7   6     0.06   0.00   0.09    -0.05   0.00  -0.06     0.01  -0.00   0.02
     8   1    -0.23   0.45  -0.25     0.22  -0.44   0.22    -0.09   0.30  -0.07
     9   1    -0.05  -0.01   0.04     0.01   0.02  -0.09    -0.23   0.04  -0.42
    10   1     0.26  -0.25   0.13    -0.17   0.21  -0.11    -0.10   0.36  -0.10
    11   6    -0.01   0.01  -0.00    -0.01   0.10   0.00     0.00  -0.00  -0.00
    12   6     0.01   0.01   0.00    -0.01  -0.10   0.00    -0.00  -0.00   0.00
    13   1     0.06  -0.05  -0.01     0.05   0.20  -0.09    -0.00  -0.00   0.01
    14   1    -0.00   0.00  -0.01     0.08   0.20   0.04    -0.02   0.00   0.00
    15   1     0.00   0.00   0.01     0.08  -0.20   0.04     0.02   0.00  -0.00
    16   1    -0.06  -0.05   0.01     0.04  -0.20  -0.09     0.00  -0.00  -0.01
                     28                     29                     30
                      A                      A                      A
 Frequencies --   1485.1986              1513.3687              1579.7382
 Red. masses --      1.1077                 1.5463                 1.5823
 Frc consts  --      1.4396                 2.0865                 2.3266
 IR Inten    --      0.0000                 0.0000                 0.0000
  Atom  AN      X      Y      Z        X      Y      Z        X      Y      Z
     1   6    -0.00   0.00  -0.00    -0.03   0.00  -0.04    -0.04  -0.06  -0.05
     2   6    -0.00  -0.00   0.00    -0.01  -0.14  -0.01     0.04   0.10   0.03
     3   1    -0.02  -0.01   0.00     0.07   0.33   0.06     0.02   0.35   0.10
     4   1     0.01   0.00   0.00     0.28   0.04   0.43     0.09  -0.04   0.25
     5   1     0.01   0.01   0.00     0.14   0.21   0.13    -0.09  -0.11  -0.03
     6   6     0.00  -0.00  -0.00    -0.01   0.14  -0.01     0.04  -0.10   0.03
     7   6     0.00   0.00   0.00    -0.03  -0.00  -0.04    -0.04   0.06  -0.05
     8   1    -0.01   0.01  -0.00     0.14  -0.21   0.13    -0.09   0.11  -0.03
     9   1    -0.01   0.00  -0.00     0.28  -0.04   0.43     0.09   0.04   0.25
    10   1     0.02  -0.01  -0.00     0.07  -0.33   0.06     0.02  -0.35   0.10
    11   6    -0.01  -0.07   0.00     0.01   0.01  -0.00    -0.02  -0.07   0.01
    12   6     0.01  -0.07  -0.00     0.01  -0.01  -0.00    -0.02   0.07   0.01
    13   1     0.02   0.38  -0.31    -0.02  -0.06   0.06     0.03   0.25  -0.24
    14   1     0.20   0.40   0.24    -0.06  -0.07  -0.04     0.17   0.25   0.17
    15   1    -0.20   0.40  -0.24    -0.06   0.07  -0.04     0.17  -0.25   0.17
    16   1    -0.02   0.38   0.31    -0.02   0.06   0.06     0.03  -0.25  -0.24
                     31                     32                     33
                      A                      A                      A
 Frequencies --   1623.3463              1623.4123              3140.6987
 Red. masses --      2.3988                 2.1298                 1.0831
 Frc consts  --      3.7245                 3.3070                 6.2947
 IR Inten    --      0.0000                 0.0000                 0.0000
  Atom  AN      X      Y      Z        X      Y      Z        X      Y      Z
     1   6     0.10   0.09   0.10     0.04   0.06   0.04    -0.00  -0.01  -0.00
     2   6    -0.12  -0.10  -0.11    -0.04  -0.12  -0.03    -0.03   0.03  -0.04
     3   1    -0.04  -0.37  -0.03    -0.04  -0.22  -0.04     0.02  -0.03   0.06
     4   1    -0.15   0.08  -0.32    -0.05   0.05  -0.11     0.01   0.20  -0.02
     5   1     0.10   0.41   0.04     0.08   0.12   0.04     0.34  -0.31   0.49
     6   6     0.12  -0.10   0.11    -0.05   0.13  -0.03     0.03   0.03   0.04
     7   6    -0.09   0.09  -0.10     0.05  -0.06   0.04     0.00  -0.01   0.00
     8   1    -0.10   0.40  -0.04     0.08  -0.14   0.04    -0.34  -0.31  -0.49
     9   1     0.14   0.08   0.31    -0.06  -0.05  -0.13    -0.01   0.20   0.02
    10   1     0.04  -0.35   0.03    -0.04   0.24  -0.05    -0.02  -0.03  -0.06
    11   6     0.00  -0.01  -0.00    -0.01  -0.16   0.00    -0.00  -0.00  -0.00
    12   6    -0.00   0.00   0.00    -0.01   0.16   0.00     0.00  -0.00   0.00
    13   1    -0.02   0.00   0.01    -0.02   0.29  -0.30     0.02   0.02   0.03
    14   1    -0.01   0.01   0.01     0.16   0.29   0.25    -0.00   0.01  -0.02
    15   1     0.02  -0.01   0.00     0.16  -0.29   0.25     0.00   0.01   0.02
    16   1     0.02  -0.02  -0.02    -0.03  -0.29  -0.30    -0.02   0.02  -0.03
                     34                     35                     36
                      A                      A                      A
 Frequencies --   3158.9989              3159.3960              3177.7394
 Red. masses --      1.0521                 1.0648                 1.0639
 Frc consts  --      6.1858                 6.2623                 6.3295
 IR Inten    --      0.0000                 0.0000                 0.0000
  Atom  AN      X      Y      Z        X      Y      Z        X      Y      Z
     1   6    -0.00  -0.00  -0.00    -0.01  -0.03  -0.02    -0.02  -0.03  -0.03
     2   6     0.00  -0.00   0.00    -0.02   0.02  -0.02     0.01  -0.00   0.01
     3   1     0.01  -0.02   0.03     0.10  -0.13   0.29     0.14  -0.18   0.41
     4   1     0.00   0.03  -0.00     0.02   0.47  -0.06     0.03   0.48  -0.06
     5   1    -0.03   0.03  -0.05     0.20  -0.19   0.28    -0.10   0.08  -0.14
     6   6    -0.00  -0.00  -0.00    -0.02  -0.02  -0.02    -0.01  -0.00  -0.01
     7   6     0.00  -0.00   0.00    -0.01   0.03  -0.02     0.02  -0.03   0.03
     8   1     0.03   0.03   0.05     0.20   0.19   0.28     0.10   0.08   0.14
     9   1    -0.00   0.03   0.00     0.02  -0.47  -0.06    -0.03   0.48   0.06
    10   1    -0.01  -0.02  -0.03     0.10   0.13   0.29    -0.14  -0.18  -0.41
    11   6    -0.02  -0.04  -0.00     0.00   0.01   0.00     0.00   0.00  -0.00
    12   6     0.02  -0.04   0.00     0.00  -0.01   0.00    -0.00   0.00   0.00
    13   1     0.25   0.28   0.41    -0.03  -0.03  -0.05    -0.02  -0.02  -0.03
    14   1    -0.05   0.21  -0.37     0.01  -0.02   0.04     0.00  -0.02   0.04
    15   1     0.05   0.21   0.37     0.01   0.02   0.04    -0.00  -0.02  -0.04
    16   1    -0.25   0.28  -0.41    -0.03   0.03  -0.05     0.02  -0.02   0.03
                     37                     38                     39
                      A                      A                      A
 Frequencies --   3182.5111              3185.5614              3250.7415
 Red. masses --      1.0751                 1.0738                 1.1161
 Frc consts  --      6.4157                 6.4202                 6.9487
 IR Inten    --      0.0000                 0.0000                 0.0000
  Atom  AN      X      Y      Z        X      Y      Z        X      Y      Z
     1   6     0.01   0.01   0.01     0.01   0.01   0.02     0.01  -0.05   0.04
     2   6    -0.02   0.02  -0.03    -0.02   0.02  -0.03     0.00  -0.00   0.00
     3   1    -0.06   0.07  -0.17    -0.09   0.11  -0.25    -0.13   0.16  -0.40
     4   1    -0.01  -0.12   0.01    -0.01  -0.21   0.03     0.03   0.40  -0.04
     5   1     0.20  -0.19   0.29     0.20  -0.19   0.29    -0.04   0.03  -0.05
     6   6    -0.02  -0.02  -0.03    -0.02  -0.02  -0.03    -0.00  -0.00  -0.00
     7   6     0.01  -0.01   0.01     0.01  -0.01   0.02    -0.01  -0.05  -0.04
     8   1     0.20   0.19   0.29     0.20   0.19   0.29     0.04   0.03   0.05
     9   1    -0.01   0.12   0.01    -0.01   0.21   0.03    -0.03   0.40   0.04
    10   1    -0.06  -0.07  -0.17    -0.09  -0.11  -0.25     0.13   0.16   0.39
    11   6    -0.01  -0.04  -0.00     0.01   0.03   0.00     0.01  -0.00   0.03
    12   6    -0.01   0.04  -0.00     0.01  -0.03   0.00    -0.01  -0.00  -0.03
    13   1     0.19   0.22   0.32    -0.17  -0.18  -0.27    -0.10  -0.11  -0.15
    14   1    -0.04   0.15  -0.27     0.03  -0.13   0.24    -0.03   0.15  -0.25
    15   1    -0.04  -0.15  -0.27     0.03   0.13   0.24     0.03   0.15   0.24
    16   1     0.19  -0.22   0.32    -0.17   0.18  -0.27     0.10  -0.11   0.15
                     40                     41                     42
                      A                      A                      A
 Frequencies --   3254.3416              3257.5506              3274.7212
 Red. masses --      1.1152                 1.1159                 1.1158
 Frc consts  --      6.9584                 6.9768                 7.0500
 IR Inten    --      0.0000                 0.0000                 0.0000
  Atom  AN      X      Y      Z        X      Y      Z        X      Y      Z
     1   6     0.01  -0.03   0.02    -0.01   0.05  -0.04    -0.00   0.00  -0.00
     2   6     0.00  -0.00   0.00    -0.01   0.01  -0.01     0.00  -0.00   0.00
     3   1    -0.08   0.10  -0.24     0.16  -0.18   0.46     0.00  -0.01   0.02
     4   1     0.01   0.23  -0.02    -0.03  -0.45   0.04    -0.00  -0.01   0.00
     5   1    -0.03   0.02  -0.04     0.06  -0.06   0.09     0.00  -0.00   0.00
     6   6    -0.00  -0.00  -0.00    -0.01  -0.01  -0.01     0.00   0.00   0.00
     7   6    -0.01  -0.03  -0.02    -0.01  -0.05  -0.04    -0.00  -0.00  -0.00
     8   1     0.03   0.02   0.04     0.06   0.06   0.09     0.00   0.00   0.00
     9   1    -0.01   0.22   0.02    -0.03   0.45   0.04    -0.00   0.01   0.00
    10   1     0.08   0.10   0.24     0.16   0.18   0.46     0.00   0.01   0.02
    11   6    -0.02   0.01  -0.06     0.00   0.00   0.00    -0.02   0.01  -0.07
    12   6     0.02   0.01   0.06     0.00  -0.00   0.00    -0.02  -0.01  -0.07
    13   1     0.17   0.19   0.27    -0.01  -0.01  -0.01     0.19   0.21   0.30
    14   1     0.05  -0.25   0.41    -0.00   0.01  -0.01     0.06  -0.29   0.48
    15   1    -0.05  -0.25  -0.41    -0.00  -0.01  -0.01     0.06   0.29   0.49
    16   1    -0.17   0.19  -0.27    -0.01   0.01  -0.01     0.19  -0.21   0.30

 -------------------
 - Thermochemistry -
 -------------------
 Temperature   298.150 Kelvin.  Pressure   1.00000 Atm.
 Atom     1 has atomic number  6 and mass  12.00000
 Atom     2 has atomic number  6 and mass  12.00000
 Atom     3 has atomic number  1 and mass   1.00783
 Atom     4 has atomic number  1 and mass   1.00783
 Atom     5 has atomic number  1 and mass   1.00783
 Atom     6 has atomic number  6 and mass  12.00000
 Atom     7 has atomic number  6 and mass  12.00000
 Atom     8 has atomic number  1 and mass   1.00783
 Atom     9 has atomic number  1 and mass   1.00783
 Atom    10 has atomic number  1 and mass   1.00783
 Atom    11 has atomic number  6 and mass  12.00000
 Atom    12 has atomic number  6 and mass  12.00000
 Atom    13 has atomic number  1 and mass   1.00783
 Atom    14 has atomic number  1 and mass   1.00783
 Atom    15 has atomic number  1 and mass   1.00783
 Atom    16 has atomic number  1 and mass   1.00783
 Molecular mass:    82.07825 amu.
 Principal axes and moments of inertia in atomic units:
                           1         2         3
     Eigenvalues --   414.49559 521.08273 798.57601
           X            0.99977   0.00002   0.02144
           Y           -0.00002   1.00000  -0.00000
           Z           -0.02144   0.00000   0.99977
 This molecule is an asymmetric top.
 Rotational symmetry number  1.
 Rotational temperatures (Kelvin)      0.20896     0.16622     0.10846
 Rotational constants (GHZ):           4.35407     3.46344     2.25995
    1 imaginary frequencies ignored.
 Zero-point vibrational energy     368361.2 (Joules/Mol)
                                   88.04043 (Kcal/Mol)
 Warning -- explicit consideration of   8 degrees of freedom as
           vibrations may cause significant error
 Vibrational temperatures:    188.07   257.00   397.00   556.67   569.59
          (Kelvin)            638.97   832.03   886.45   985.17  1103.99
                             1184.18  1236.75  1276.31  1355.64  1381.33
                             1382.18  1431.80  1445.67  1467.44  1589.57
                             1595.56  1797.99  1834.07  1838.86  1921.66
                             2093.19  2136.87  2177.40  2272.89  2335.63
                             2335.73  4518.76  4545.09  4545.67  4572.06
                             4578.92  4583.31  4677.09  4682.27  4686.89
                             4711.59
 
 Zero-point correction=                           0.140301 (Hartree/Particle)
 Thermal correction to Energy=                    0.146846
 Thermal correction to Enthalpy=                  0.147790
 Thermal correction to Gibbs Free Energy=         0.110588
 Sum of electronic and zero-point Energies=           -234.403649
 Sum of electronic and thermal Energies=              -234.397104
 Sum of electronic and thermal Enthalpies=            -234.396160
 Sum of electronic and thermal Free Energies=         -234.433362
 
                     E (Thermal)             CV                S
                      KCal/Mol        Cal/Mol-Kelvin    Cal/Mol-Kelvin
 Total                   92.147             25.119             78.299
 Electronic               0.000              0.000              0.000
 Translational            0.889              2.981             39.129
 Rotational               0.889              2.981             26.647
 Vibrational             90.370             19.157             12.522
 Vibration     1          0.612              1.923              2.935
 Vibration     2          0.629              1.869              2.343
 Vibration     3          0.678              1.718              1.559
 Vibration     4          0.755              1.498              1.012
 Vibration     5          0.763              1.479              0.978
 Vibration     6          0.804              1.374              0.814
 Vibration     7          0.935              1.078              0.489
 Vibration     8          0.976              0.998              0.423
                       Q            Log10(Q)             Ln(Q)
 Total Bot       0.135896D-50        -50.866793       -117.125119
 Total V=0       0.464831D+14         13.667295         31.470111
 Vib (Bot)       0.312748D-63        -63.504806       -146.225220
 Vib (Bot)    1  0.155931D+01          0.192932          0.444243
 Vib (Bot)    2  0.112496D+01          0.051138          0.117749
 Vib (Bot)    3  0.698267D+00         -0.155979         -0.359154
 Vib (Bot)    4  0.465047D+00         -0.332503         -0.765616
 Vib (Bot)    5  0.451572D+00         -0.345273         -0.795020
 Vib (Bot)    6  0.387980D+00         -0.411191         -0.946802
 Vib (Bot)    7  0.263957D+00         -0.578467         -1.331969
 Vib (Bot)    8  0.238331D+00         -0.622819         -1.434094
 Vib (V=0)       0.106975D+02          1.029282          2.370010
 Vib (V=0)    1  0.213751D+01          0.329908          0.759642
 Vib (V=0)    2  0.173107D+01          0.238315          0.548741
 Vib (V=0)    3  0.135882D+01          0.133163          0.306619
 Vib (V=0)    4  0.118284D+01          0.072926          0.167917
 Vib (V=0)    5  0.117373D+01          0.069570          0.160190
 Vib (V=0)    6  0.113287D+01          0.054181          0.124757
 Vib (V=0)    7  0.106540D+01          0.027511          0.063347
 Vib (V=0)    8  0.105390D+01          0.022798          0.052495
 Electronic      0.100000D+01          0.000000          0.000000
 Translational   0.292278D+08          7.465796         17.190631
 Rotational      0.148668D+06          5.172217         11.909470
 ***** Axes restored to original set *****
 -------------------------------------------------------------------
 Center     Atomic                   Forces (Hartrees/Bohr)
 Number     Number              X              Y              Z
 -------------------------------------------------------------------
      1        6          -0.000004256   -0.000005025   -0.000001379
      2        6          -0.000001529    0.000001272   -0.000017759
      3        1          -0.000001162   -0.000012154    0.000000151
      4        1           0.000002297   -0.000001068    0.000004872
      5        1           0.000001597    0.000000026    0.000001016
      6        6          -0.000004213    0.000000278    0.000014130
      7        6          -0.000005120    0.000005215   -0.000002731
      8        1           0.000001396   -0.000000047    0.000000599
      9        1           0.000002086    0.000001270    0.000002145
     10        1           0.000000328    0.000010274   -0.000000690
     11        6           0.000003661   -0.000010427   -0.000007475
     12        6           0.000003243    0.000008786    0.000011206
     13        1           0.000003329    0.000005698    0.000000069
     14        1          -0.000001450    0.000002527   -0.000001649
     15        1          -0.000001864   -0.000003114   -0.000001966
     16        1           0.000001659   -0.000003507   -0.000000538
 -------------------------------------------------------------------
 Cartesian Forces:  Max     0.000017759 RMS     0.000005445
 Z-matrix is all fixed cartesians, so copy forces.
 Leave Link  716 at Sun May 25 11:50:49 2025, MaxMem=   104857600 cpu:               0.1 elap:               0.1
 (Enter /mlatom/software/Gaussian/g16-avx2/l103.exe)

 GradGradGradGradGradGradGradGradGradGradGradGradGradGradGradGradGradGrad
 Berny optimization.
 Search for a local minimum.
 Step number   1 out of a maximum of    2
 All quantities printed in internal units (Hartrees-Bohrs-Radians)
 Second derivative matrix not updated -- analytic derivatives used.
 ITU=  0
     Eigenvalues ---   -0.10490   0.00138   0.00475   0.00683   0.01164
     Eigenvalues ---    0.01415   0.01862   0.02046   0.02541   0.02695
     Eigenvalues ---    0.03111   0.03376   0.03395   0.03972   0.05559
     Eigenvalues ---    0.06126   0.06811   0.07626   0.08621   0.08655
     Eigenvalues ---    0.11311   0.12667   0.14075   0.14443   0.14492
     Eigenvalues ---    0.15670   0.16893   0.18970   0.25370   0.30736
     Eigenvalues ---    0.40055   0.52537   0.57974   0.73064   0.78558
     Eigenvalues ---    0.90317   0.91729   1.00905   1.05667   1.07804
     Eigenvalues ---    1.23567   1.27461
 Eigenvalue     1 is  -1.05D-01 should be greater than     0.000000 Eigenvector:
                          X11       X12       X1        X7        Z11
   1                    0.47270   0.47268  -0.41094  -0.41089   0.15237
                          Z12       Z1        Z7        Y1        Y7
   1                    0.15234  -0.13811  -0.13808   0.12027  -0.12016
 Angle between quadratic step and forces=  60.75 degrees.
 Linear search not attempted -- first point.
 B after Tr=    -0.000006   -0.000004    0.000003
         Rot=    1.000000   -0.000001    0.000001    0.000000 Ang=  -0.00 deg.
 Variable       Old X    -DE/DX   Delta X   Delta X   Delta X     New X
                                 (Linear)    (Quad)   (Total)
    X1        0.83914  -0.00000   0.00000  -0.00010  -0.00011   0.83903
    Y1       -2.70979  -0.00001   0.00000  -0.00014  -0.00015  -2.70994
    Z1        0.92352  -0.00000   0.00000  -0.00008  -0.00008   0.92344
    X2        2.50047  -0.00000   0.00000  -0.00009  -0.00010   2.50036
    Y2       -1.32886   0.00000   0.00000  -0.00001  -0.00002  -1.32888
    Z2       -0.54612  -0.00002   0.00000  -0.00001  -0.00001  -0.54613
    X3        0.24249  -0.00000   0.00000  -0.00007  -0.00009   0.24241
    Y3       -1.99901  -0.00001   0.00000  -0.00039  -0.00040  -1.99941
    Z3        2.74956   0.00000   0.00000   0.00002   0.00002   2.74958
    X4        0.73215   0.00000   0.00000   0.00011   0.00010   0.73225
    Y4       -4.75213  -0.00000   0.00000  -0.00016  -0.00017  -4.75230
    Z4        0.72505   0.00000   0.00000  -0.00008  -0.00009   0.72496
    X5        3.54300   0.00000   0.00000   0.00002   0.00001   3.54301
    Y5       -2.29237   0.00000   0.00000   0.00004   0.00004  -2.29233
    Z5       -2.03609   0.00000   0.00000   0.00003   0.00003  -2.03606
    X6        2.50072  -0.00000   0.00000   0.00002   0.00002   2.50074
    Y6        1.32844   0.00000   0.00000  -0.00003  -0.00004   1.32841
    Z6       -0.54613   0.00001   0.00000   0.00015   0.00015  -0.54598
    X7        0.83969  -0.00001   0.00000  -0.00003  -0.00004   0.83965
    Y7        2.70972   0.00001   0.00000   0.00022   0.00021   2.70993
    Z7        0.92352  -0.00000   0.00000  -0.00010  -0.00009   0.92343
    X8        3.54349   0.00000   0.00000   0.00017   0.00017   3.54365
    Y8        2.29176  -0.00000   0.00000  -0.00011  -0.00011   2.29165
    Z8       -2.03606   0.00000   0.00000   0.00019   0.00020  -2.03586
    X9        0.73311   0.00000   0.00000   0.00026   0.00026   0.73337
    Y9        4.75208   0.00000   0.00000   0.00022   0.00021   4.75229
    Z9        0.72509   0.00000   0.00000  -0.00037  -0.00035   0.72474
   X10        0.24277   0.00000   0.00000  -0.00012  -0.00013   0.24264
   Y10        1.99905   0.00001   0.00000   0.00067   0.00066   1.99970
   Z10        2.74951  -0.00000   0.00000   0.00004   0.00005   2.74956
   X11       -2.97549   0.00000   0.00000   0.00010   0.00009  -2.97540
   Y11       -1.30977  -0.00001   0.00000  -0.00006  -0.00006  -1.30983
   Z11       -0.42985  -0.00001   0.00000  -0.00004  -0.00005  -0.42989
   X12       -2.97537   0.00000   0.00000   0.00004   0.00003  -2.97534
   Y12        1.31020   0.00001   0.00000  -0.00001  -0.00001   1.31019
   Z12       -0.42993   0.00001   0.00000   0.00011   0.00011  -0.42982
   X13       -3.93136   0.00000   0.00000   0.00013   0.00012  -3.93124
   Y13       -2.33970   0.00001   0.00000  -0.00005  -0.00005  -2.33975
   Z13        1.06694   0.00000   0.00000  -0.00002  -0.00003   1.06691
   X14       -2.77497  -0.00000   0.00000  -0.00009  -0.00010  -2.77506
   Y14       -2.33752   0.00000   0.00000   0.00006   0.00006  -2.33746
   Z14       -2.19043  -0.00000   0.00000  -0.00013  -0.00014  -2.19056
   X15       -2.77464  -0.00000   0.00000  -0.00025  -0.00025  -2.77489
   Y15        2.33788  -0.00000   0.00000  -0.00000   0.00000   2.33788
   Z15       -2.19052  -0.00000   0.00000   0.00007   0.00008  -2.19044
   X16       -3.93101   0.00000   0.00000   0.00002   0.00002  -3.93100
   Y16        2.34030  -0.00000   0.00000  -0.00017  -0.00017   2.34013
   Z16        1.06688  -0.00000   0.00000   0.00019   0.00019   1.06707
         Item               Value     Threshold  Converged?
 Maximum Force            0.000018     0.000450     YES
 RMS     Force            0.000005     0.000300     YES
 Maximum Displacement     0.000655     0.001800     YES
 RMS     Displacement     0.000166     0.001200     YES
 Predicted change in Energy=-1.165086D-08
 Optimization completed.
    -- Stationary point found.
 GradGradGradGradGradGradGradGradGradGradGradGradGradGradGradGradGradGrad

 Leave Link  103 at Sun May 25 11:50:49 2025, MaxMem=   104857600 cpu:               0.1 elap:               0.2
 (Enter /mlatom/software/Gaussian/g16-avx2/l9999.exe)
 1\1\GINC-B004\Freq\RExternal='/mlatom/software/miniconda3/bin/python /
 mlatom/software/mlatom_xacs/ml\ZDO\C6H10\UNKNOWN\25-May-2025\0\\#p Fre
 q external='/mlatom/software/miniconda3/bin/python /mlatom/software/ml
 atom_xacs/mlatom/interfaces/gaussian_interface.py model_predict_kwargs
 '\\2a5a1222-06ac-4218-b556-3f28011f98ad\\0,1\C,0.4440537503,-1.4339594
 274,0.4887057997\C,1.3231892276,-0.7032016667,-0.2889942732\H,0.128320
 8082,-1.0578302959,1.4550054757\H,0.3874350297,-2.5147165272,0.3836818
 137\H,1.8748731815,-1.2130712892,-1.077450285\C,1.3233261201,0.7029826
 728,-0.2889997904\C,0.4443457651,1.4339220947,0.4887034116\H,1.8751327
 294,1.2127450111,-1.0774388541\H,0.3879473132,2.5146926832,0.383702001
 7\H,0.1284680685,1.0578512363,1.4549787655\C,-1.5745597002,-0.69310300
 92,-0.2274650062\C,-1.5744994542,0.6933291175,-0.2275087217\H,-2.08038
 44153,-1.2381162423,0.564602498\H,-1.4684483637,-1.2369621819,-1.15912
 41938\H,-1.4682751191,1.2371533055,-1.1591742556\H,-2.0802034854,1.238
 4356106,0.5645685153\\Version=ES64L-G16RevA.03\HF=-234.5439502\RMSD=0.
 000e+00\RMSF=5.445e-06\ZeroPoint=0.1403014\Thermal=0.146846\Dipole=-0.
 3405718,0.,0.1677443\PG=C01 [X(C6H10)]\NImag=1\\0.23450291,0.12437663,
 0.66555771,-0.24621083,0.02963247,0.55008845,-0.16713491,-0.11580941,0
 .14308787,0.39028295,-0.05824613,-0.18590947,0.07828077,0.03328493,0.6
 6581808,0.12220917,0.09032325,-0.19294074,-0.30540522,0.02216732,0.465
 86600,-0.04439294,0.02602003,0.07897804,-0.00996031,0.00039939,0.02356
 450,0.06491910,0.02161532,-0.09349782,-0.09512311,-0.00047546,0.014106
 98,0.01353658,-0.02999477,0.09366328,0.09559912,-0.09696512,-0.2825679
 2,0.00170763,-0.01324221,-0.00801982,-0.09136214,0.10314439,0.29046658
 ,-0.03926478,-0.01207367,0.00908746,0.00310975,-0.02433039,-0.00295471
 ,0.00117385,0.00884826,0.00065586,0.03615592,-0.02248155,-0.34006710,-
 0.03302611,0.00558171,-0.01167939,-0.00554254,-0.00049268,-0.00724135,
 0.00110516,0.02171294,0.35732518,0.01067361,-0.03226816,-0.05421434,0.
 00083840,0.01930599,0.00394095,-0.00126437,-0.02704962,0.00087206,-0.0
 1145591,0.03416909,0.04935003,-0.00234174,0.01098958,0.01537763,-0.116
 28848,0.05823989,0.11023637,0.00175423,-0.00348044,0.00317082,-0.00288
 466,-0.00038699,-0.00201227,0.11343159,-0.00849293,0.01063280,0.014726
 12,0.05949439,-0.11766870,-0.09335505,-0.00364903,-0.00171396,0.001909
 12,0.00103614,0.00152418,0.00046036,-0.06606588,0.12551657,0.01094419,
 -0.00922879,-0.01271932,0.11237457,-0.09943183,-0.19141472,0.00642264,
 0.00062157,0.00145061,-0.00247010,0.00220389,-0.00111613,-0.12491715,0
 .10098696,0.19946723,0.01224026,-0.01744866,-0.00564295,-0.07550483,-0
 .01443752,0.05502051,-0.00334158,0.00127917,-0.00289757,0.00167955,-0.
 00372665,0.00334029,0.00237138,0.02024949,-0.00074038,0.39027089,-0.06
 411182,-0.03447015,0.01869466,0.01438665,-0.31596457,-0.03177759,0.007
 68899,-0.00209676,0.00168736,-0.00144209,0.00047478,0.00138213,0.00180
 157,-0.01128962,0.00444820,-0.03322255,0.66583330,-0.02083331,0.016596
 53,0.01179940,0.05502444,0.03175044,-0.10225226,-0.00093368,-0.0019744
 8,0.00121297,0.00597684,0.00029699,0.00089926,-0.00153483,-0.02689227,
 0.00161328,-0.30541525,-0.02208433,0.46585905,-0.04882643,-0.00534808,
 0.00708953,0.01225708,0.06410110,-0.02084320,0.00496983,-0.00308379,0.
 00311558,-0.00027551,0.00021010,0.00026979,0.00631181,-0.00215575,0.00
 310362,-0.16710265,0.05824424,0.12220221,0.23447857,0.00535773,-0.0041
 5590,-0.00663256,0.01743905,-0.03449044,-0.01659124,-0.00169525,-0.000
 93242,0.00035153,0.00159282,0.00012789,-0.00001618,-0.00133081,-0.0044
 3138,0.00019111,0.11580404,-0.18594622,-0.09035042,-0.12427468,0.66561
 400,0.00709159,0.00663162,-0.00639469,-0.00564657,-0.01869456,0.011801
 00,-0.00028557,0.00377641,0.00097858,-0.00027250,0.00014866,-0.0000236
 3,0.00216486,0.00136617,0.00324914,0.14307222,-0.07831287,-0.19294196,
 -0.24623534,-0.02957313,0.55007084,0.00631226,0.00132867,0.00216461,0.
 00236712,-0.00180384,-0.00152908,-0.00045703,0.00006223,-0.00015562,0.
 00002076,0.00017923,0.00010142,-0.00120588,-0.00054719,-0.00238204,-0.
 11631955,-0.05824443,0.11025765,-0.00234374,-0.01098775,0.01537359,0.1
 1346683,0.00215332,-0.00443218,-0.00136663,-0.02025274,-0.01128380,0.0
 2689084,0.00051211,-0.00030076,-0.00009539,-0.00140593,-0.00116182,0.0
 0061524,0.00054711,-0.00141368,-0.00105482,-0.05949785,-0.11764714,0.0
 9333172,0.00849590,0.01063420,-0.01472865,0.06607204,0.12548996,0.0031
 0313,-0.00019219,0.00324949,-0.00074092,-0.00444683,0.00161315,-0.0006
 7718,-0.00058329,0.00011509,0.00029209,-0.00026724,0.00010377,-0.00238
 190,0.00105528,-0.00006639,0.11239657,0.09940601,-0.19140869,0.0109453
 0,0.00922726,-0.01271930,-0.12493984,-0.10095959,0.19946030,-0.0002763
 9,-0.00159262,-0.00027259,0.00168095,0.00144204,0.00597677,-0.00020601
 ,0.00022490,-0.00002812,0.00005082,-0.00014431,-0.00004200,0.00002103,
 0.00140593,0.00029236,0.00311308,0.02432682,-0.00295280,-0.03925774,0.
 01200817,0.00909465,-0.00288502,-0.00103492,-0.00247026,0.03614510,-0.
 00021009,0.00012825,-0.00014863,0.00372582,0.00047362,-0.00029846,0.00
 038781,0.00027838,-0.00069962,0.00014445,0.00047861,-0.00045124,-0.000
 17951,-0.00116197,0.00026715,-0.00558539,-0.01168215,0.00554364,0.0224
 1793,-0.34007884,0.03301800,0.00038837,0.00152446,-0.00220338,-0.02164
 404,0.35733863,0.00026914,0.00001572,-0.00002364,0.00334021,-0.0013808
 9,0.00089879,0.00031290,0.00007203,-0.00003207,-0.00004194,0.00045118,
 0.00021733,0.00010127,-0.00061509,0.00010378,0.00083392,-0.01930695,0.
 00394194,0.01068116,0.03225788,-0.05421139,-0.00201229,-0.00045994,-0.
 00111656,-0.01146577,-0.03416107,0.04934575,0.00497077,0.00169403,-0.0
 0028592,-0.00334309,-0.00768850,-0.00093234,0.00087937,-0.00020859,-0.
 00046456,-0.00020605,-0.00038786,0.00031263,-0.00045719,-0.00051198,-0
 .00067706,-0.00996019,-0.00039537,0.02355811,-0.04441764,-0.02603803,0
 .07901423,0.00175633,0.00364805,0.00642291,0.00117250,0.00049119,-0.00
 125848,0.06494294,0.00308308,-0.00093368,-0.00377550,-0.00127895,-0.00
 209504,0.00197482,0.00020808,-0.00230675,0.00142829,-0.00022470,0.0002
 7876,-0.00007194,-0.00006211,-0.00030075,0.00058336,0.00048129,0.01410
 763,-0.01354144,-0.02163354,-0.09349003,0.09510639,0.00347986,-0.00171
 542,-0.00062323,-0.00885217,-0.00724095,0.02704972,0.03000959,0.093654
 25,0.00311573,-0.00035257,0.00097884,-0.00289829,-0.00168644,0.0012127
 2,-0.00046471,-0.00142881,0.00104919,-0.00002796,0.00069978,-0.0000319
 3,-0.00015559,0.00009541,0.00011499,0.00171099,0.01324162,-0.00801854,
 0.09563493,0.09694618,-0.28255689,0.00317030,-0.00190972,0.00145134,0.
 00065634,-0.00110495,0.00087211,-0.09139980,-0.10312524,0.29045316,0.0
 5573960,-0.01301773,0.00140179,-0.03187314,-0.03865099,0.01480885,-0.0
 1291357,0.00508765,-0.00765354,0.00034960,-0.00102082,-0.00106214,-0.0
 0146246,-0.00048853,-0.00110156,-0.01263881,0.03159286,0.01056787,0.02
 911887,-0.00494995,-0.00121994,-0.00094102,0.00026041,-0.00099398,-0.0
 0067570,-0.00028635,-0.00079659,-0.00334702,-0.00153644,-0.00300659,0.
 16046431,-0.06942929,-0.00992497,-0.00139961,0.02353997,0.03936331,-0.
 02063068,0.00853364,-0.00201305,0.00503859,0.00588205,-0.00094683,0.00
 378234,0.00232840,0.00013034,0.00189398,0.01640585,-0.03986038,-0.0169
 1467,-0.06041468,-0.00494536,0.00125298,0.00247423,0.00024010,0.001759
 26,0.00079559,0.00111152,0.00024916,0.00630188,0.00159597,0.00412899,0
 .12007501,0.67412296,0.01908176,-0.00479137,-0.01568557,-0.00350235,-0
 .01022171,0.00607309,-0.01220248,0.00342347,-0.00523903,0.00077634,-0.
 00055033,-0.00028537,-0.00069523,0.00004636,-0.00104207,-0.00114277,0.
 01083877,0.00480889,0.01019242,-0.00212920,-0.00173720,-0.00003352,-0.
 00011086,-0.00007757,-0.00032408,-0.00016068,0.00000160,-0.00193399,-0
 .00113709,-0.00096602,-0.17195995,0.04358457,0.59362937,0.02912839,0.0
 0494419,-0.00121911,-0.01264772,-0.03159310,0.01057305,-0.00334694,0.0
 0153605,-0.00300706,-0.00067641,0.00028708,-0.00079719,-0.00094200,-0.
 00026005,-0.00099503,-0.03186246,0.03866009,0.01480519,0.05573888,0.01
 300249,0.00140119,-0.00146267,0.00048856,-0.00110179,0.00035058,0.0010
 1993,-0.00106119,-0.01291337,-0.00508428,-0.00765450,-0.07549644,0.041
 85087,0.01142987,0.16042346,0.06041826,-0.00495849,-0.00125119,-0.0164
 1400,-0.03985215,0.01691856,-0.00630167,0.00159760,-0.00412790,-0.0007
 9627,0.00111200,-0.00024899,-0.00247438,0.00024030,-0.00175909,-0.0235
 2360,0.03935858,0.02062150,0.06940295,-0.00993686,0.00139661,-0.002327
 26,0.00013019,-0.00189368,-0.00587898,-0.00094513,-0.00378062,-0.00853
 105,-0.00201056,-0.00503802,-0.04188479,-0.38383858,-0.01523433,-0.119
 99961,0.67416306,0.01018812,0.00212772,-0.00173650,-0.00114303,-0.0108
 3390,0.00480894,-0.00193288,0.00113663,-0.00096549,-0.00032386,0.00016
 071,0.00000169,-0.00003267,0.00011092,-0.00007695,-0.00349774,0.010217
 41,0.00606960,0.01907228,0.00478647,-0.01568179,-0.00069376,-0.0000463
 6,-0.00104124,0.00077755,0.00055041,-0.00028520,-0.01220045,-0.0034200
 4,-0.00523848,0.01143385,0.01523929,-0.10434034,-0.17196655,-0.0435545
 7,0.59364323,-0.01446259,-0.00190975,0.00353165,0.00188851,0.00462729,
 -0.00261605,-0.00007297,-0.00107001,0.00086641,0.00014285,0.00024619,0
 .00031193,0.00019187,0.00029023,0.00035264,0.00092299,-0.00453433,-0.0
 0237817,-0.00547454,0.00009160,0.00069701,0.00035624,0.00006834,0.0002
 1512,-0.00012859,-0.00035510,-0.00009927,0.00082219,0.00044939,-0.0000
 5899,-0.08861959,-0.08176828,0.11297850,0.00562798,0.00848261,0.000377
 77,0.09640905,0.00303179,0.00124376,-0.00072677,-0.00040476,-0.0007475
 6,-0.00090651,-0.00073828,0.00026442,0.00006345,0.00018630,0.00010550,
 -0.00002523,0.00000949,0.00006866,0.00002446,-0.00027261,0.00039874,0.
 00106555,-0.00021358,-0.00028560,0.00087034,0.00006914,-0.00008634,-0.
 00013065,-0.00032592,-0.00034086,-0.00006078,0.00058897,0.00009311,-0.
 00035615,-0.07144086,-0.12232229,0.09825961,-0.01355896,-0.01396221,0.
 02536240,0.07500729,0.13159054,-0.00831094,-0.00097163,0.00166041,0.00
 117934,0.00183393,-0.00073395,-0.00031974,-0.00004287,0.00047056,0.000
 39815,-0.00009830,-0.00039358,0.00032767,0.00011223,0.00008296,-0.0008
 7876,-0.00175681,-0.00017350,-0.00225749,-0.00062876,0.00004232,-0.000
 01476,-0.00016294,0.00020974,-0.00006082,0.00006015,0.00001243,0.00026
 148,-0.00007317,0.00011984,0.10932305,0.09664790,-0.20897289,0.0007367
 5,0.00279230,0.00384712,-0.11230087,-0.11209764,0.21656360,-0.01541433
 ,-0.00255772,-0.00843983,0.00294161,0.00592155,-0.00321375,-0.00045193
 ,0.00007275,0.00033963,0.00099885,0.00007242,0.00083474,0.00083511,-0.
 00035447,-0.00055974,0.00130211,-0.00420094,-0.00251556,-0.00530535,-0
 .00049393,0.00065613,0.00030898,-0.00011836,0.00013796,-0.00024608,0.0
 0000394,0.00005014,0.00062501,-0.00003614,0.00017224,-0.02924491,-0.00
 056385,0.03566710,0.00591291,0.00752740,0.00128896,0.00018222,0.008456
 62,0.01205319,0.03581925,0.00273432,0.00091667,0.00277003,-0.00174267,
 -0.00062975,-0.00073925,-0.00030276,0.00022991,-0.00008002,0.00035006,
 0.00008239,0.00016976,0.00002939,0.00001194,0.00011923,0.00134733,0.00
 016086,0.00090490,0.00001277,0.00015616,-0.00021636,-0.00010408,-0.000
 05836,-0.00000393,-0.00019425,-0.00007184,-0.00018566,-0.00001349,-0.0
 0013100,-0.00012642,0.00842428,-0.12564658,-0.12524764,0.00571565,-0.0
 1310571,-0.02879426,-0.00061791,0.00961898,0.01486567,-0.01438414,0.13
 396729,-0.00357749,-0.00083628,-0.00212795,0.00322264,0.00278662,-0.00
 008751,-0.00011766,0.00012247,0.00001632,0.00049250,0.00006495,0.00055
 240,0.00038391,-0.00016595,-0.00000976,-0.00056074,-0.00205504,-0.0005
 8842,-0.00108502,0.00035040,0.00059247,-0.00001830,0.00000352,0.000153
 81,-0.00007165,-0.00024429,0.00011528,0.00002066,-0.00029557,0.0000730
 5,0.03878883,-0.12879372,-0.27464121,0.00073460,0.00304873,0.00462618,
 -0.00092460,-0.01071536,-0.01429572,-0.03697458,0.13609312,0.28309584,
 -0.00530560,0.00049522,0.00065594,0.00130264,0.00420054,-0.00251659,0.
 00062512,0.00003596,0.00017231,-0.00024607,-0.00000385,0.00005015,0.00
 030917,0.00011820,0.00013787,0.00294097,-0.00592210,-0.00321253,-0.015
 41152,0.00256066,-0.00843763,0.00083472,0.00035440,-0.00055991,0.00099
 890,-0.00007228,0.00083545,-0.00045182,-0.00007262,0.00033973,0.005910
 48,-0.00752812,0.00129370,-0.02924634,0.00054111,0.03569477,0.00570298
 ,-0.00123985,0.00236760,-0.00396628,0.00058413,-0.00186401,0.03582124,
 -0.00001245,0.00015586,0.00021633,-0.00134716,0.00016113,-0.00090469,0
 .00001342,-0.00013094,0.00012628,0.00019426,-0.00007193,0.00018570,0.0
 0010391,-0.00005830,0.00000393,0.00174286,-0.00063004,0.00073969,-0.00
 273191,0.00091669,-0.00276812,-0.00002976,0.00001192,-0.00011922,-0.00
 035032,0.00008252,-0.00016989,0.00030288,0.00023008,0.00007997,-0.0057
 1916,-0.01310192,0.02879309,-0.00844288,-0.12564092,0.12524165,0.00183
 701,-0.00593995,-0.00014704,-0.00058358,0.00043915,-0.00032311,0.01440
 262,0.13395711,-0.00108520,-0.00035033,0.00059239,-0.00056019,0.002055
 52,-0.00058857,0.00002069,0.00029540,0.00007299,-0.00007134,0.00024414
 ,0.00011526,-0.00001821,-0.00000348,0.00015373,0.00322257,-0.00278784,
 -0.00008750,-0.00357641,0.00083772,-0.00212753,0.00038435,0.00016585,-
 0.00000979,0.00049169,-0.00006573,0.00055299,-0.00011745,-0.00012202,0
 .00001654,0.00073404,-0.00304766,0.00462648,0.03881674,0.12878585,-0.2
 7464889,0.00155053,-0.00096024,0.00068244,-0.00186416,0.00032343,0.001
 84307,-0.03700607,-0.13608641,0.28310223,-0.00547449,-0.00009072,0.000
 69670,0.00092367,0.00453374,-0.00237829,0.00082173,-0.00044921,-0.0000
 5876,-0.00012846,0.00035504,-0.00009910,0.00035623,-0.00006856,0.00021
 517,0.00188884,-0.00462760,-0.00261620,-0.01445993,0.00191383,0.003532
 07,0.00019167,-0.00029043,0.00035270,0.00014259,-0.00024668,0.00031133
 ,-0.00007274,0.00106965,0.00086617,0.00562942,-0.00848328,0.00037467,-
 0.08858785,0.08175929,0.11295764,-0.00348858,0.00084520,-0.00250384,0.
 00570282,-0.00183864,0.00155090,0.00018143,0.00062025,-0.00092156,0.09
 637365,0.00021378,-0.00028529,-0.00087026,0.00027261,0.00039774,-0.001
 06538,-0.00058904,0.00009325,0.00035609,0.00032578,-0.00034088,0.00006
 076,-0.00006923,-0.00008641,0.00013070,0.00040479,-0.00074688,0.000906
 65,-0.00302899,0.00124410,0.00072653,-0.00000944,0.00006867,-0.0000245
 7,-0.00018592,0.00010574,0.00002520,0.00073829,0.00026438,-0.00006362,
 0.01355542,-0.01396424,-0.02536265,0.07143397,-0.12235114,-0.09828448,
 -0.00084458,0.00030110,-0.00033301,0.00123844,-0.00594011,0.00095952,-
 0.00845403,0.00961954,0.01071579,-0.07500187,0.13162043,-0.00225780,0.
 00062914,0.00004224,-0.00087854,0.00175777,-0.00017349,0.00026164,0.00
 007323,0.00012002,-0.00006092,-0.00006001,0.00001225,-0.00001468,0.000
 16291,0.00020966,0.00117909,-0.00183474,-0.00073353,-0.00830936,0.0009
 7294,0.00166005,0.00032729,-0.00011227,0.00008286,0.00039872,0.0000987
 4,-0.00039314,-0.00031997,0.00004266,0.00047008,0.00073600,-0.00279074
 ,0.00384881,0.10930502,-0.09667515,-0.20898188,-0.00250361,0.00033353,
 0.00087822,0.00236753,0.00014739,0.00068223,0.01204919,-0.01486814,-0.
 01429583,-0.11227959,0.11212274,0.21657146\\0.00000426,0.00000503,0.00
 000138,0.00000153,-0.00000127,0.00001776,0.00000116,0.00001215,-0.0000
 0015,-0.00000230,0.00000107,-0.00000487,-0.00000160,-0.00000003,-0.000
 00102,0.00000421,-0.00000028,-0.00001413,0.00000512,-0.00000521,0.0000
 0273,-0.00000140,0.00000005,-0.00000060,-0.00000209,-0.00000127,-0.000
 00215,-0.00000033,-0.00001027,0.00000069,-0.00000366,0.00001043,0.0000
 0748,-0.00000324,-0.00000879,-0.00001121,-0.00000333,-0.00000570,-0.00
 000007,0.00000145,-0.00000253,0.00000165,0.00000186,0.00000311,0.00000
 197,-0.00000166,0.00000351,0.00000054\\\@


 ALL THINGS ARE POSSIBLE EXCEPT SKIING THROUGH A REVOLVING DOOR.
 Job cpu time:       0 days  0 hours  0 minutes  0.8 seconds.
 Elapsed time:       0 days  0 hours  0 minutes  9.2 seconds.
 File lengths (MBytes):  RWF=     22 Int=      0 D2E=      0 Chk=      2 Scr=      2
 Normal termination of Gaussian 16 at Sun May 25 11:50:49 2025.
