 Entering Gaussian System, Link 0=/mlatom/software/Gaussian/g16-avx2/g16
 Input=gaussian.com
 Output=gaussian.log
 Initial command:
 /mlatom/software/Gaussian/g16-avx2/l1.exe "/mlatom/home/huangyh/projects/delta_learning/paper/revision1/Starting_from_ub3lyp_d4/da/b3lyp/xtb/p/Gau-146820.inp" -scrdir="/mlatom/home/huangyh/projects/delta_learning/paper/revision1/Starting_from_ub3lyp_d4/da/b3lyp/xtb/p/"
 Entering Link 1 = /mlatom/software/Gaussian/g16-avx2/l1.exe PID=    146821.
  
 Copyright (c) 1988,1990,1992,1993,1995,1998,2003,2009,2016,
            Gaussian, Inc.  All Rights Reserved.
  
 This is part of the Gaussian(R) 16 program.  It is based on
 the Gaussian(R) 09 system (copyright 2009, Gaussian, Inc.),
 the Gaussian(R) 03 system (copyright 2003, Gaussian, Inc.),
 the Gaussian(R) 98 system (copyright 1998, Gaussian, Inc.),
 the Gaussian(R) 94 system (copyright 1995, Gaussian, Inc.),
 the Gaussian 92(TM) system (copyright 1992, Gaussian, Inc.),
 the Gaussian 90(TM) system (copyright 1990, Gaussian, Inc.),
 the Gaussian 88(TM) system (copyright 1988, Gaussian, Inc.),
 the Gaussian 86(TM) system (copyright 1986, Carnegie Mellon
 University), and the Gaussian 82(TM) system (copyright 1983,
 Carnegie Mellon University). Gaussian is a federally registered
 trademark of Gaussian, Inc.
  
 This software contains proprietary and confidential information,
 including trade secrets, belonging to Gaussian, Inc.
  
 This software is provided under written license and may be
 used, copied, transmitted, or stored only in accord with that
 written license.
  
 The following legend is applicable only to US Government
 contracts under FAR:
  
                    RESTRICTED RIGHTS LEGEND
  
 Use, reproduction and disclosure by the US Government is
 subject to restrictions as set forth in subparagraphs (a)
 and (c) of the Commercial Computer Software - Restricted
 Rights clause in FAR 52.227-19.
  
 Gaussian, Inc.
 340 Quinnipiac St., Bldg. 40, Wallingford CT 06492
  
  
 ---------------------------------------------------------------
 Warning -- This program may not be used in any manner that
 competes with the business of Gaussian, Inc. or will provide
 assistance to any competitor of Gaussian, Inc.  The licensee
 of this program is prohibited from giving any competitor of
 Gaussian, Inc. access to this program.  By using this program,
 the user acknowledges that Gaussian, Inc. is engaged in the
 business of creating and licensing software in the field of
 computational chemistry and represents and warrants to the
 licensee that it is not a competitor of Gaussian, Inc. and that
 it will not use this program in any manner prohibited above.
 ---------------------------------------------------------------
  

 Cite this work as:
 Gaussian 16, Revision A.03,
 M. J. Frisch, G. W. Trucks, H. B. Schlegel, G. E. Scuseria, 
 M. A. Robb, J. R. Cheeseman, G. Scalmani, V. Barone, 
 G. A. Petersson, H. Nakatsuji, X. Li, M. Caricato, A. V. Marenich, 
 J. Bloino, B. G. Janesko, R. Gomperts, B. Mennucci, H. P. Hratchian, 
 J. V. Ortiz, A. F. Izmaylov, J. L. Sonnenberg, D. Williams-Young, 
 F. Ding, F. Lipparini, F. Egidi, J. Goings, B. Peng, A. Petrone, 
 T. Henderson, D. Ranasinghe, V. G. Zakrzewski, J. Gao, N. Rega, 
 G. Zheng, W. Liang, M. Hada, M. Ehara, K. Toyota, R. Fukuda, 
 J. Hasegawa, M. Ishida, T. Nakajima, Y. Honda, O. Kitao, H. Nakai, 
 T. Vreven, K. Throssell, J. A. Montgomery, Jr., J. E. Peralta, 
 F. Ogliaro, M. J. Bearpark, J. J. Heyd, E. N. Brothers, K. N. Kudin, 
 V. N. Staroverov, T. A. Keith, R. Kobayashi, J. Normand, 
 K. Raghavachari, A. P. Rendell, J. C. Burant, S. S. Iyengar, 
 J. Tomasi, M. Cossi, J. M. Millam, M. Klene, C. Adamo, R. Cammi, 
 J. W. Ochterski, R. L. Martin, K. Morokuma, O. Farkas, 
 J. B. Foresman, and D. J. Fox, Gaussian, Inc., Wallingford CT, 2016.
 
 ******************************************
 Gaussian 16:  ES64L-G16RevA.03 25-Dec-2016
                27-May-2025 
 ******************************************
 %nproc=1
 Will use up to    1 processors via shared memory.
 ----------------------------------------------------------------------
 #p Freq external='/mlatom/software/miniconda3/bin/python /mlatom/softw
 are/mlatom_xacs/mlatom/interfaces/gaussian_interface.py model_predict_
 kwargs'
 ----------------------------------------------------------------------
 1/10=4,18=10,30=1,38=1/1,3;
 2/12=2,17=6,18=5,40=1/2;
 3/11=9,25=1,30=1,41=9900000,43=2,71=2,140=1/1;
 4/20=17,22=2,24=3,113=1,114=1/2;
 6/7=2,8=2,9=2,10=2/1;
 7/8=1,25=1,44=-1/16;
 1/10=4,18=10,30=1/3;
 99//99;
 Leave Link    1 at Tue May 27 14:36:54 2025, MaxMem=           0 cpu:               0.0 elap:               0.1
 (Enter /mlatom/software/Gaussian/g16-avx2/l101.exe)
 ------------------------------------
 42d5ff51-63dd-4440-98ad-d579b99a07d5
 ------------------------------------
 Symbolic Z-matrix:
 Charge =  0 Multiplicity = 1
 C                    -1.48392   0.0422    0.11701 
 C                    -0.65901   1.29099   0.05286 
 H                    -2.37648   0.16116  -0.50295 
 H                    -1.82713  -0.10188   1.14754 
 H                    -1.20489   2.22326   0.10857 
 C                     0.659     1.29099  -0.05286 
 C                     1.48392   0.0422   -0.11701 
 H                     1.20489   2.22326  -0.10858 
 H                     2.37648   0.16116   0.50295 
 H                     1.82713  -0.10188  -1.14754 
 C                    -0.68361  -1.17556  -0.33748 
 C                     0.68361  -1.17556   0.33748 
 H                    -0.54806  -1.13676  -1.4205 
 H                    -1.22764  -2.09151  -0.09801 
 H                     0.54806  -1.13677   1.4205 
 H                     1.22764  -2.09151   0.09801 
 
 ITRead=  0  0  0  0  0  0  0  0  0  0  0  0  0  0  0  0
 MicOpt= -1 -1 -1 -1 -1 -1 -1 -1 -1 -1 -1 -1 -1 -1 -1 -1
 NAtoms=     16 NQM=       16 NQMF=       0 NMMI=      0 NMMIF=      0
                NMic=       0 NMicF=      0.
                    Isotopes and Nuclear Properties:
 (Nuclear quadrupole moments (NQMom) in fm**2, nuclear magnetic moments (NMagM)
  in nuclear magnetons)

  Atom         1           2           3           4           5           6           7           8           9          10
 IAtWgt=          12          12           1           1           1          12          12           1           1           1
 AtmWgt=  12.0000000  12.0000000   1.0078250   1.0078250   1.0078250  12.0000000  12.0000000   1.0078250   1.0078250   1.0078250
 NucSpn=           0           0           1           1           1           0           0           1           1           1
 AtZEff=  -0.0000000  -0.0000000  -0.0000000  -0.0000000  -0.0000000  -0.0000000  -0.0000000  -0.0000000  -0.0000000  -0.0000000
 NQMom=    0.0000000   0.0000000   0.0000000   0.0000000   0.0000000   0.0000000   0.0000000   0.0000000   0.0000000   0.0000000
 NMagM=    0.0000000   0.0000000   2.7928460   2.7928460   2.7928460   0.0000000   0.0000000   2.7928460   2.7928460   2.7928460
 AtZNuc=   6.0000000   6.0000000   1.0000000   1.0000000   1.0000000   6.0000000   6.0000000   1.0000000   1.0000000   1.0000000

  Atom        11          12          13          14          15          16
 IAtWgt=          12          12           1           1           1           1
 AtmWgt=  12.0000000  12.0000000   1.0078250   1.0078250   1.0078250   1.0078250
 NucSpn=           0           0           1           1           1           1
 AtZEff=  -0.0000000  -0.0000000  -0.0000000  -0.0000000  -0.0000000  -0.0000000
 NQMom=    0.0000000   0.0000000   0.0000000   0.0000000   0.0000000   0.0000000
 NMagM=    0.0000000   0.0000000   2.7928460   2.7928460   2.7928460   2.7928460
 AtZNuc=   6.0000000   6.0000000   1.0000000   1.0000000   1.0000000   1.0000000
 Leave Link  101 at Tue May 27 14:36:55 2025, MaxMem=   104857600 cpu:               0.1 elap:               0.3
 (Enter /mlatom/software/Gaussian/g16-avx2/l103.exe)

 GradGradGradGradGradGradGradGradGradGradGradGradGradGradGradGradGradGrad
 Berny optimization.
 Initialization pass.
 Trust Radius=3.00D-01 FncErr=1.00D-07 GrdErr=1.00D-07 EigMax=2.50D+02 EigMin=1.00D-04
 Number of steps in this run=      2 maximum allowed number of steps=      2.
 GradGradGradGradGradGradGradGradGradGradGradGradGradGradGradGradGradGrad

 Leave Link  103 at Tue May 27 14:36:55 2025, MaxMem=   104857600 cpu:               0.0 elap:               0.1
 (Enter /mlatom/software/Gaussian/g16-avx2/l202.exe)
                          Input orientation:                          
 ---------------------------------------------------------------------
 Center     Atomic      Atomic             Coordinates (Angstroms)
 Number     Number       Type             X           Y           Z
 ---------------------------------------------------------------------
      1          6           0       -1.483922    0.042197    0.117008
      2          6           0       -0.659005    1.290986    0.052856
      3          1           0       -2.376484    0.161156   -0.502946
      4          1           0       -1.827127   -0.101882    1.147537
      5          1           0       -1.204888    2.223261    0.108575
      6          6           0        0.659005    1.290986   -0.052856
      7          6           0        1.483922    0.042197   -0.117007
      8          1           0        1.204887    2.223261   -0.108575
      9          1           0        2.376484    0.161157    0.502948
     10          1           0        1.827128   -0.101882   -1.147536
     11          6           0       -0.683607   -1.175560   -0.337476
     12          6           0        0.683608   -1.175560    0.337476
     13          1           0       -0.548058   -1.136765   -1.420505
     14          1           0       -1.227637   -2.091510   -0.098010
     15          1           0        0.548058   -1.136766    1.420505
     16          1           0        1.227637   -2.091510    0.098009
 ---------------------------------------------------------------------
                    Distance matrix (angstroms):
                    1          2          3          4          5
     1  C    0.000000
     2  C    1.498025   0.000000
     3  H    1.093235   2.129593   0.000000
     4  H    1.095691   2.122008   1.759284   0.000000
     5  H    2.198857   1.081771   2.449260   2.621625   0.000000
     6  C    2.486054   1.322243   3.270060   3.092229   2.090285
     7  C    2.977057   2.486054   3.881474   3.547236   3.469528
     8  H    3.469528   2.090285   4.151389   4.022092   2.419539
     9  H    3.881473   3.270060   4.858243   4.260872   4.151388
    10  H    3.547237   3.092229   4.260874   4.315199   4.022092
    11  C    1.526431   2.497361   2.163336   2.160020   3.467373
    12  C    2.495942   2.822670   3.443440   2.848293   3.894970
    13  H    2.151683   2.842020   2.422737   3.049892   3.749571
    14  H    2.159774   3.433276   2.560924   2.422684   4.319774
    15  H    2.686634   3.036683   3.733258   2.605187   4.010457
    16  H    3.450453   3.873337   4.292475   3.793641   4.953235
                    6          7          8          9         10
     6  C    0.000000
     7  C    1.498025   0.000000
     8  H    1.081771   2.198857   0.000000
     9  H    2.129593   1.093235   2.449260   0.000000
    10  H    2.122008   1.095691   2.621624   1.759284   0.000000
    11  C    2.822670   2.495942   3.894970   3.443440   2.848294
    12  C    2.497361   1.526431   3.467373   2.163336   2.160020
    13  H    3.036682   2.686634   4.010455   3.733258   2.605189
    14  H    3.873337   3.450453   4.953235   4.292475   3.793642
    15  H    2.842020   2.151683   3.749572   2.422736   3.049892
    16  H    3.433276   2.159774   4.319774   2.560924   2.422683
                   11         12         13         14         15
    11  C    0.000000
    12  C    1.524741   0.000000
    13  H    1.092168   2.146859   0.000000
    14  H    1.091915   2.163670   1.767020   0.000000
    15  H    2.146858   1.092168   3.045128   2.523988   0.000000
    16  H    2.163670   1.091915   2.523988   2.463086   1.767020
                   16
    16  H    0.000000
 Stoichiometry    C6H10
 Framework group  C1[X(C6H10)]
 Deg. of freedom    42
 Full point group                 C1      NOp   1
 Largest Abelian subgroup         C1      NOp   1
 Largest concise Abelian subgroup C1      NOp   1
                         Standard orientation:                         
 ---------------------------------------------------------------------
 Center     Atomic      Atomic             Coordinates (Angstroms)
 Number     Number       Type             X           Y           Z
 ---------------------------------------------------------------------
      1          6           0       -1.483922    0.042197    0.117008
      2          6           0       -0.659005    1.290986    0.052856
      3          1           0       -2.376484    0.161156   -0.502946
      4          1           0       -1.827127   -0.101882    1.147537
      5          1           0       -1.204888    2.223261    0.108575
      6          6           0        0.659005    1.290986   -0.052856
      7          6           0        1.483922    0.042197   -0.117007
      8          1           0        1.204887    2.223261   -0.108575
      9          1           0        2.376484    0.161157    0.502948
     10          1           0        1.827128   -0.101882   -1.147536
     11          6           0       -0.683607   -1.175560   -0.337476
     12          6           0        0.683608   -1.175560    0.337476
     13          1           0       -0.548058   -1.136765   -1.420505
     14          1           0       -1.227637   -2.091510   -0.098010
     15          1           0        0.548058   -1.136766    1.420505
     16          1           0        1.227637   -2.091510    0.098009
 ---------------------------------------------------------------------
 Rotational constants (GHZ):           4.8118956           4.6122624           2.6078093
 Leave Link  202 at Tue May 27 14:36:55 2025, MaxMem=   104857600 cpu:               0.0 elap:               0.1
 (Enter /mlatom/software/Gaussian/g16-avx2/l301.exe)
 Standard basis: STO-3G (5D, 7F)
 Ernie: Thresh=  0.10000D-02 Tol=  0.10000D-05 Strict=F.
 There are    40 symmetry adapted cartesian basis functions of A   symmetry.
 There are    40 symmetry adapted basis functions of A   symmetry.
    40 basis functions,   120 primitive gaussians,    40 cartesian basis functions
    23 alpha electrons       23 beta electrons
       nuclear repulsion energy       238.4254194691 Hartrees.
 IExCor=    0 DFT=F Ex=HF Corr=None ExCW=0 ScaHFX=  1.000000
 ScaDFX=  1.000000  1.000000  1.000000  1.000000 ScalE2=  1.000000  1.000000
 IRadAn=      5 IRanWt=     -1 IRanGd=            0 ICorTp=0 IEmpDi=  4
 NAtoms=   16 NActive=   16 NUniq=   16 SFac= 1.00D+00 NAtFMM=   60 NAOKFM=F Big=F
 Integral buffers will be    131072 words long.
 Raffenetti 1 integral format.
 Two-electron integral symmetry is turned on.
 Leave Link  301 at Tue May 27 14:36:55 2025, MaxMem=   104857600 cpu:               0.0 elap:               0.1
 (Enter /mlatom/software/Gaussian/g16-avx2/l402.exe)
 External calculation of energy, first and second derivatives.
 Running external command "/mlatom/software/miniconda3/bin/python /mlatom/software/mlatom_xacs/mlatom/interfaces/gaussian_interface.py model_predict_kwargs R"
         input file       "/mlatom/home/huangyh/projects/delta_learning/paper/revision1/Starting_from_ub3lyp_d4/da/b3lyp/xtb/p/Gau-146821.EIn"
         output file      "/mlatom/home/huangyh/projects/delta_learning/paper/revision1/Starting_from_ub3lyp_d4/da/b3lyp/xtb/p/Gau-146821.EOu"
         message file     "/mlatom/home/huangyh/projects/delta_learning/paper/revision1/Starting_from_ub3lyp_d4/da/b3lyp/xtb/p/Gau-146821.EMs"
         fchk file        "/mlatom/home/huangyh/projects/delta_learning/paper/revision1/Starting_from_ub3lyp_d4/da/b3lyp/xtb/p/Gau-146821.EFC"
         mat. el file     "/mlatom/home/huangyh/projects/delta_learning/paper/revision1/Starting_from_ub3lyp_d4/da/b3lyp/xtb/p/Gau-146821.EUF"
 Recovered energy= -17.9314389186     dipole=      0.000000000000     -0.330405432882      0.000000000000
 Energy=    -17.9314389     NIter=   0.
 Dipole moment=       0.000000      -0.330405       0.000000
 Leave Link  402 at Tue May 27 14:36:57 2025, MaxMem=   104857600 cpu:               0.1 elap:               1.6
 (Enter /mlatom/software/Gaussian/g16-avx2/l601.exe)
 Leave Link  601 at Tue May 27 14:36:57 2025, MaxMem=   104857600 cpu:               0.0 elap:               0.1
 (Enter /mlatom/software/Gaussian/g16-avx2/l716.exe)
 Dipole        = 0.00000000D+00-3.30405433D-01 0.00000000D+00
 Full mass-weighted force constant matrix:
 Low frequencies ---   -0.0318   -0.0246   -0.0187   -0.0104    0.0122    0.0275
 Low frequencies ---  147.3414  274.1762  374.3683
 Diagonal vibrational polarizability:
        0.0000000       0.0000000       0.0000000
 Harmonic frequencies (cm**-1), IR intensities (KM/Mole), Raman scattering
 activities (A**4/AMU), depolarization ratios for plane and unpolarized
 incident light, reduced masses (AMU), force constants (mDyne/A),
 and normal coordinates:
                      1                      2                      3
                      A                      A                      A
 Frequencies --    147.3414               274.1762               374.3683
 Red. masses --      1.7806                 1.9322                 1.9935
 Frc consts  --      0.0228                 0.0856                 0.1646
 IR Inten    --      0.0000                 0.0000                 0.0000
  Atom  AN      X      Y      Z        X      Y      Z        X      Y      Z
     1   6     0.02  -0.01   0.14    -0.01   0.04  -0.05    -0.07   0.02  -0.05
     2   6    -0.02   0.01  -0.09    -0.01   0.04  -0.10     0.01  -0.03   0.18
     3   1    -0.14  -0.06   0.37     0.02  -0.02  -0.10     0.14   0.14  -0.33
     4   1     0.30  -0.03   0.23    -0.06   0.19  -0.04    -0.41  -0.03  -0.17
     5   1    -0.03   0.01  -0.27    -0.02   0.04  -0.17     0.05  -0.01   0.28
     6   6    -0.02  -0.01  -0.09     0.01   0.04   0.10    -0.01  -0.03  -0.18
     7   6     0.02   0.01   0.14     0.01   0.04   0.05     0.07   0.02   0.05
     8   1    -0.03  -0.01  -0.27     0.02   0.04   0.17    -0.05  -0.01  -0.28
     9   1    -0.14   0.06   0.37    -0.02  -0.02   0.10    -0.14   0.14   0.33
    10   1     0.30   0.03   0.23     0.06   0.19   0.04     0.41  -0.03   0.17
    11   6    -0.01   0.05  -0.06    -0.07  -0.07   0.13    -0.03   0.01   0.04
    12   6    -0.01  -0.05  -0.06     0.07  -0.07  -0.13     0.03   0.01  -0.04
    13   1    -0.02   0.23  -0.06    -0.26  -0.33   0.09    -0.07  -0.07   0.03
    14   1    -0.01   0.02  -0.19    -0.06   0.00   0.43     0.01   0.01   0.13
    15   1    -0.02  -0.23  -0.06     0.26  -0.33  -0.09     0.07  -0.07  -0.03
    16   1    -0.01  -0.02  -0.19     0.06   0.00  -0.43    -0.01   0.01  -0.13
                      4                      5                      6
                      A                      A                      A
 Frequencies --    448.2701               474.9732               664.4361
 Red. masses --      2.5699                 4.4695                 1.4995
 Frc consts  --      0.3043                 0.5941                 0.3900
 IR Inten    --      0.0000                 0.0000                 0.0000
  Atom  AN      X      Y      Z        X      Y      Z        X      Y      Z
     1   6     0.05  -0.08   0.01     0.26   0.00  -0.05     0.04   0.05  -0.04
     2   6     0.10  -0.09   0.01     0.02   0.19   0.13    -0.08   0.10  -0.02
     3   1    -0.06   0.06   0.19     0.25   0.04  -0.03    -0.14  -0.10   0.20
     4   1     0.22  -0.09   0.07     0.23  -0.10  -0.07     0.32   0.03   0.06
     5   1     0.02  -0.13   0.06    -0.14   0.08   0.23     0.01   0.11   0.43
     6   6     0.10   0.09   0.01    -0.02   0.19  -0.13    -0.08  -0.10  -0.02
     7   6     0.05   0.08   0.01    -0.26   0.00   0.05     0.04  -0.05  -0.04
     8   1     0.02   0.13   0.06     0.14   0.08  -0.23     0.01  -0.11   0.43
     9   1    -0.06  -0.06   0.19    -0.25   0.04   0.03    -0.14   0.10   0.20
    10   1     0.22   0.09   0.07    -0.23  -0.10   0.07     0.32  -0.03   0.06
    11   6    -0.13  -0.15  -0.06     0.05  -0.17  -0.05     0.03   0.00  -0.02
    12   6    -0.13   0.15  -0.06    -0.05  -0.17   0.05     0.03  -0.00  -0.02
    13   1    -0.30  -0.36  -0.09     0.10  -0.30  -0.05    -0.06  -0.22  -0.03
    14   1    -0.04  -0.13   0.23    -0.16  -0.02   0.02    -0.01   0.08   0.21
    15   1    -0.30   0.36  -0.09    -0.10  -0.30   0.05    -0.06   0.22  -0.03
    16   1    -0.04   0.13   0.23     0.16  -0.02  -0.02    -0.01  -0.08   0.21
                      7                      8                      9
                      A                      A                      A
 Frequencies --    741.2919               834.7816               889.3447
 Red. masses --      1.4459                 1.3746                 3.6967
 Frc consts  --      0.4681                 0.5644                 1.7227
 IR Inten    --      0.0000                 0.0000                 0.0000
  Atom  AN      X      Y      Z        X      Y      Z        X      Y      Z
     1   6    -0.03  -0.03  -0.01     0.03  -0.01   0.08    -0.21   0.03  -0.00
     2   6     0.05  -0.08  -0.08    -0.00   0.03  -0.05    -0.03   0.15   0.04
     3   1    -0.08  -0.07   0.05     0.24  -0.05  -0.25    -0.33   0.10   0.20
     4   1     0.06   0.14   0.04    -0.34   0.17  -0.03     0.01  -0.01   0.07
     5   1     0.04  -0.12   0.55    -0.06   0.00  -0.05     0.00   0.18  -0.09
     6   6     0.05   0.08  -0.08     0.00   0.03   0.05     0.03   0.15  -0.04
     7   6    -0.03   0.03  -0.01    -0.03  -0.01  -0.08     0.21   0.03   0.00
     8   1     0.04   0.12   0.55     0.06   0.00   0.05    -0.00   0.18   0.09
     9   1    -0.08   0.07   0.05    -0.24  -0.05   0.25     0.33   0.10  -0.20
    10   1     0.06  -0.14   0.04     0.34   0.17   0.03    -0.01  -0.01  -0.07
    11   6    -0.02   0.01   0.05     0.00  -0.05   0.05    -0.11  -0.18  -0.08
    12   6    -0.02  -0.01   0.05    -0.00  -0.05  -0.05     0.11  -0.18   0.08
    13   1     0.14   0.23   0.07     0.03   0.33   0.06     0.02   0.02  -0.06
    14   1    -0.03  -0.05  -0.22    -0.04  -0.11  -0.29    -0.15  -0.21  -0.33
    15   1     0.14  -0.23   0.07    -0.03   0.33  -0.06    -0.02   0.02   0.06
    16   1    -0.03   0.05  -0.22     0.04  -0.11   0.29     0.15  -0.21   0.33
                     10                     11                     12
                      A                      A                      A
 Frequencies --    922.9723               946.9536               947.5441
 Red. masses --      1.2045                 1.5344                 1.9654
 Frc consts  --      0.6045                 0.8107                 1.0397
 IR Inten    --      0.0000                 0.0000                 0.0000
  Atom  AN      X      Y      Z        X      Y      Z        X      Y      Z
     1   6    -0.01   0.01  -0.00    -0.08  -0.00  -0.08     0.11  -0.00  -0.09
     2   6    -0.01  -0.00  -0.09     0.04   0.05   0.05    -0.04  -0.08   0.04
     3   1    -0.02   0.03   0.01    -0.26   0.04   0.22     0.01   0.03   0.07
     4   1     0.00   0.04   0.00     0.25  -0.12   0.03     0.26  -0.11  -0.04
     5   1     0.05  -0.01   0.70     0.15   0.12  -0.20    -0.26  -0.20  -0.17
     6   6     0.01  -0.00   0.09     0.04  -0.05   0.05    -0.04   0.08   0.04
     7   6     0.01   0.01   0.00    -0.08   0.00  -0.08     0.11   0.00  -0.09
     8   1    -0.05  -0.01  -0.70     0.15  -0.12  -0.20    -0.26   0.20  -0.17
     9   1     0.02   0.03  -0.01    -0.26  -0.04   0.22     0.01  -0.03   0.07
    10   1    -0.00   0.04  -0.00     0.25   0.12   0.03     0.26   0.11  -0.04
    11   6    -0.01  -0.01  -0.01    -0.00  -0.07   0.03    -0.06   0.08   0.05
    12   6     0.01  -0.01   0.01    -0.00   0.07   0.03    -0.06  -0.08   0.05
    13   1     0.00  -0.01  -0.01     0.38  -0.01   0.07     0.20  -0.02   0.08
    14   1    -0.03  -0.00  -0.02     0.02  -0.13  -0.19    -0.36   0.23  -0.04
    15   1    -0.00  -0.01   0.01     0.38   0.01   0.07     0.20   0.02   0.08
    16   1     0.03  -0.00   0.02     0.02   0.13  -0.19    -0.36  -0.23  -0.04
                     13                     14                     15
                      A                      A                      A
 Frequencies --    971.0015               980.4131              1077.4823
 Red. masses --      2.3170                 2.6134                 1.6119
 Frc consts  --      1.2871                 1.4800                 1.1026
 IR Inten    --      0.0000                 0.0000                 0.0000
  Atom  AN      X      Y      Z        X      Y      Z        X      Y      Z
     1   6    -0.07  -0.13   0.00     0.15  -0.03   0.02    -0.01  -0.00   0.11
     2   6    -0.05   0.14  -0.00    -0.06   0.13  -0.01    -0.01   0.02  -0.06
     3   1    -0.07  -0.42  -0.05     0.25  -0.04  -0.16     0.16   0.31  -0.09
     4   1    -0.07  -0.23  -0.01    -0.09   0.09  -0.04    -0.28  -0.35  -0.05
     5   1    -0.16   0.07   0.11    -0.05   0.11   0.07     0.01   0.03  -0.09
     6   6     0.05   0.14   0.00    -0.06  -0.13  -0.01     0.01   0.02   0.06
     7   6     0.07  -0.13  -0.00     0.15   0.03   0.02     0.01  -0.00  -0.11
     8   1     0.16   0.07  -0.11    -0.05  -0.11   0.07    -0.01   0.03   0.09
     9   1     0.07  -0.42   0.05     0.25   0.04  -0.16    -0.16   0.31   0.09
    10   1     0.07  -0.23   0.01    -0.09  -0.09  -0.04     0.28  -0.35   0.05
    11   6     0.10   0.05   0.05    -0.10  -0.14   0.03     0.00   0.01  -0.10
    12   6    -0.10   0.05  -0.05    -0.10   0.14   0.03    -0.00   0.01   0.10
    13   1     0.04  -0.07   0.04     0.14   0.25   0.06    -0.03  -0.29  -0.10
    14   1     0.34  -0.07   0.18    -0.10  -0.22  -0.39     0.00   0.07   0.18
    15   1    -0.04  -0.07  -0.04     0.14  -0.25   0.06     0.03  -0.29   0.10
    16   1    -0.34  -0.07  -0.18    -0.10   0.22  -0.39    -0.00   0.07  -0.18
                     16                     17                     18
                      A                      A                      A
 Frequencies --   1103.1487              1123.4318              1133.5177
 Red. masses --      1.5410                 1.9838                 1.1846
 Frc consts  --      1.1049                 1.4752                 0.8968
 IR Inten    --      0.0000                 0.0000                 0.0000
  Atom  AN      X      Y      Z        X      Y      Z        X      Y      Z
     1   6     0.01   0.11  -0.01     0.04  -0.09  -0.04    -0.00   0.02   0.06
     2   6    -0.04  -0.06   0.02    -0.02   0.03  -0.00    -0.02  -0.01  -0.05
     3   1    -0.03   0.37   0.10     0.03  -0.06  -0.03     0.08   0.39   0.00
     4   1     0.07   0.37   0.05     0.01  -0.22  -0.06    -0.13  -0.36  -0.05
     5   1    -0.27  -0.18  -0.03    -0.35  -0.17   0.02     0.00  -0.01   0.15
     6   6    -0.04   0.06   0.02     0.02   0.03   0.00    -0.02   0.01  -0.05
     7   6     0.01  -0.11  -0.01    -0.04  -0.09   0.04    -0.00  -0.02   0.06
     8   1    -0.27   0.18  -0.03     0.35  -0.17  -0.02     0.00   0.01   0.15
     9   1    -0.03  -0.37   0.10    -0.03  -0.06   0.03     0.08  -0.39   0.00
    10   1     0.07  -0.37   0.05    -0.01  -0.22   0.06    -0.13   0.36  -0.05
    11   6     0.03  -0.06  -0.02    -0.16   0.07  -0.02     0.01  -0.01  -0.02
    12   6     0.03   0.06  -0.02     0.16   0.07   0.02     0.01   0.01  -0.02
    13   1     0.01   0.05  -0.01    -0.31   0.18  -0.04     0.31  -0.22   0.02
    14   1     0.21  -0.17  -0.05    -0.30   0.15  -0.05    -0.10   0.05  -0.01
    15   1     0.01  -0.05  -0.01     0.31   0.18   0.04     0.31   0.22   0.02
    16   1     0.21   0.17  -0.05     0.30   0.15   0.05    -0.10  -0.05  -0.01
                     19                     20                     21
                      A                      A                      A
 Frequencies --   1155.9552              1221.3248              1235.7601
 Red. masses --      1.0346                 1.2720                 1.2121
 Frc consts  --      0.8145                 1.1179                 1.0905
 IR Inten    --      0.0000                 0.0000                 0.0000
  Atom  AN      X      Y      Z        X      Y      Z        X      Y      Z
     1   6    -0.01   0.01   0.02    -0.02   0.01   0.03     0.04  -0.03  -0.01
     2   6    -0.01  -0.01   0.00    -0.01  -0.01   0.02     0.02   0.01   0.00
     3   1    -0.00  -0.38  -0.07     0.01  -0.23  -0.05     0.05  -0.14  -0.06
     4   1    -0.05  -0.06  -0.00    -0.07   0.51   0.08     0.00   0.10  -0.00
     5   1     0.25   0.15  -0.00    -0.29  -0.17   0.02     0.42   0.25  -0.01
     6   6     0.01  -0.01  -0.00     0.01  -0.01  -0.02    -0.02   0.01  -0.00
     7   6     0.01   0.01  -0.02     0.02   0.01  -0.03    -0.04  -0.03   0.01
     8   1    -0.25   0.15   0.00     0.29  -0.17  -0.02    -0.42   0.25   0.01
     9   1     0.00  -0.38   0.07    -0.01  -0.23   0.05    -0.05  -0.14   0.06
    10   1     0.05  -0.06   0.00     0.07   0.51  -0.08    -0.00   0.10   0.00
    11   6     0.02   0.00  -0.01     0.02   0.00  -0.10    -0.05   0.01  -0.06
    12   6    -0.02   0.00   0.01    -0.02   0.00   0.10     0.05   0.01   0.06
    13   1     0.07  -0.08  -0.00    -0.10  -0.15  -0.10    -0.34   0.10  -0.09
    14   1    -0.42   0.26  -0.01     0.01   0.05   0.10     0.25  -0.14   0.05
    15   1    -0.07  -0.08   0.00     0.10  -0.15   0.10     0.34   0.10   0.09
    16   1     0.42   0.26   0.01    -0.01   0.05  -0.10    -0.25  -0.14  -0.05
                     22                     23                     24
                      A                      A                      A
 Frequencies --   1244.7956              1324.2866              1341.3040
 Red. masses --      1.2197                 1.2928                 1.5737
 Frc consts  --      1.1135                 1.3358                 1.6681
 IR Inten    --      0.0000                 0.0000                 0.0000
  Atom  AN      X      Y      Z        X      Y      Z        X      Y      Z
     1   6    -0.02   0.03   0.05     0.00  -0.07  -0.01     0.01   0.15   0.00
     2   6     0.00  -0.03   0.01    -0.05  -0.03   0.00    -0.01  -0.03  -0.00
     3   1     0.01  -0.32  -0.07     0.01   0.34   0.06    -0.04  -0.34  -0.03
     4   1    -0.08   0.33   0.07     0.02   0.21   0.03    -0.01  -0.38  -0.07
     5   1     0.03  -0.01  -0.03     0.33   0.20  -0.02    -0.18  -0.13   0.02
     6   6     0.00   0.03   0.01    -0.05   0.03   0.00     0.01  -0.03   0.00
     7   6    -0.02  -0.03   0.05     0.00   0.07  -0.01    -0.01   0.15  -0.00
     8   1     0.03   0.01  -0.03     0.33  -0.20  -0.02     0.18  -0.13  -0.02
     9   1     0.01   0.32  -0.07     0.01  -0.34   0.06     0.04  -0.34   0.03
    10   1    -0.08  -0.33   0.07     0.02  -0.21   0.03     0.01  -0.38   0.07
    11   6     0.02  -0.04  -0.06     0.06  -0.03   0.01     0.03  -0.04  -0.02
    12   6     0.02   0.04  -0.06     0.06   0.03   0.01    -0.03  -0.04   0.02
    13   1     0.30  -0.26  -0.02    -0.17   0.10  -0.01    -0.31   0.14  -0.05
    14   1    -0.28   0.14  -0.04    -0.32   0.18  -0.03     0.14  -0.11  -0.02
    15   1     0.30   0.26  -0.02    -0.17  -0.10  -0.01     0.31   0.14   0.05
    16   1    -0.28  -0.14  -0.04    -0.32  -0.18  -0.03    -0.14  -0.11   0.02
                     25                     26                     27
                      A                      A                      A
 Frequencies --   1342.7309              1353.7454              1361.3136
 Red. masses --      1.7114                 1.5297                 1.6793
 Frc consts  --      1.8180                 1.6517                 1.8335
 IR Inten    --      0.0000                 0.0000                 0.0000
  Atom  AN      X      Y      Z        X      Y      Z        X      Y      Z
     1   6     0.01  -0.12   0.00    -0.03  -0.04  -0.02     0.05   0.07   0.00
     2   6    -0.00   0.04   0.01    -0.00   0.01  -0.00    -0.08  -0.12   0.01
     3   1     0.07   0.25  -0.01    -0.03   0.28   0.05     0.05  -0.15  -0.05
     4   1     0.02   0.39   0.07     0.04   0.05   0.01     0.04  -0.08  -0.02
     5   1     0.01   0.04  -0.02     0.00   0.01   0.00     0.50   0.24  -0.03
     6   6    -0.00  -0.04   0.01     0.00   0.01   0.00    -0.08   0.12   0.01
     7   6     0.01   0.12   0.00     0.03  -0.04   0.02     0.05  -0.07   0.00
     8   1     0.01  -0.04  -0.02    -0.00   0.01  -0.00     0.50  -0.24  -0.03
     9   1     0.07  -0.25  -0.01     0.03   0.28  -0.05     0.05   0.15  -0.05
    10   1     0.02  -0.39   0.07    -0.04   0.05  -0.01     0.04   0.08  -0.02
    11   6    -0.06   0.10  -0.02     0.14  -0.04   0.00    -0.05   0.02  -0.00
    12   6    -0.06  -0.10  -0.02    -0.14  -0.04  -0.00    -0.05  -0.02  -0.00
    13   1     0.29  -0.22   0.01    -0.49   0.25  -0.06     0.12  -0.01   0.02
    14   1     0.29  -0.08   0.11    -0.23   0.19   0.06     0.28  -0.16   0.05
    15   1     0.29   0.22   0.01     0.49   0.25   0.06     0.12   0.01   0.02
    16   1     0.29   0.08   0.11     0.23   0.19  -0.06     0.28   0.16   0.05
                     28                     29                     30
                      A                      A                      A
 Frequencies --   1471.3398              1477.2754              1488.3045
 Red. masses --      1.0946                 1.0893                 1.0921
 Frc consts  --      1.3961                 1.4007                 1.4252
 IR Inten    --      0.0000                 0.0000                 0.0000
  Atom  AN      X      Y      Z        X      Y      Z        X      Y      Z
     1   6    -0.05   0.00   0.02    -0.06   0.01   0.02    -0.01  -0.01  -0.00
     2   6     0.01   0.00  -0.00    -0.00  -0.00   0.00     0.00   0.01  -0.00
     3   1     0.27   0.03  -0.38     0.28   0.04  -0.41    -0.00   0.00  -0.01
     4   1     0.44  -0.04   0.14     0.47  -0.04   0.15     0.00  -0.01  -0.00
     5   1    -0.01  -0.01   0.00    -0.01  -0.01   0.00    -0.02  -0.01   0.00
     6   6    -0.01   0.00   0.00    -0.00   0.00   0.00     0.00  -0.01  -0.00
     7   6     0.05   0.00  -0.02    -0.06  -0.01   0.02    -0.01   0.01  -0.00
     8   1     0.01  -0.01  -0.00    -0.01   0.01   0.00    -0.02   0.01   0.00
     9   1    -0.27   0.03   0.38     0.28  -0.04  -0.41    -0.00  -0.00  -0.01
    10   1    -0.44  -0.04  -0.14     0.47   0.04   0.15     0.00   0.01  -0.00
    11   6     0.00   0.02   0.01     0.00  -0.01   0.00    -0.02  -0.04  -0.04
    12   6    -0.00   0.02  -0.01     0.00   0.01   0.00    -0.02   0.04  -0.04
    13   1    -0.09  -0.15  -0.02    -0.02   0.01  -0.00     0.24   0.43   0.04
    14   1    -0.00  -0.04  -0.18    -0.02   0.00  -0.01    -0.01   0.13   0.48
    15   1     0.09  -0.15   0.02    -0.02  -0.01  -0.00     0.24  -0.43   0.04
    16   1     0.00  -0.04   0.18    -0.02  -0.00  -0.01    -0.01  -0.13   0.48
                     31                     32                     33
                      A                      A                      A
 Frequencies --   1498.1179              1737.9693              2923.5342
 Red. masses --      1.1033                 7.9589                 1.0850
 Frc consts  --      1.4589                14.1640                 5.4637
 IR Inten    --      0.0000                 0.0000                 0.0000
  Atom  AN      X      Y      Z        X      Y      Z        X      Y      Z
     1   6     0.02  -0.01  -0.01    -0.05  -0.03   0.00    -0.00  -0.01   0.06
     2   6    -0.00   0.00  -0.00     0.55   0.07  -0.05    -0.00  -0.00   0.00
     3   1    -0.10   0.00   0.15    -0.11  -0.18   0.09    -0.19   0.02  -0.10
     4   1    -0.17   0.03  -0.05    -0.12  -0.12  -0.06     0.21   0.09  -0.63
     5   1     0.01   0.01  -0.00    -0.02  -0.31   0.01     0.00  -0.00   0.00
     6   6     0.00   0.00   0.00    -0.55   0.07   0.05     0.00  -0.00  -0.00
     7   6    -0.02  -0.01   0.01     0.05  -0.03  -0.00     0.00  -0.01  -0.06
     8   1    -0.01   0.01   0.00     0.02  -0.31  -0.01    -0.00  -0.00  -0.00
     9   1     0.10   0.00  -0.15     0.11  -0.18  -0.09     0.19   0.02   0.10
    10   1     0.17   0.03   0.05     0.12  -0.12   0.06    -0.21   0.09   0.63
    11   6     0.02   0.04   0.04     0.01   0.00  -0.00     0.00   0.00  -0.00
    12   6    -0.02   0.04  -0.04    -0.01   0.00   0.00    -0.00   0.00   0.00
    13   1    -0.24  -0.40  -0.04    -0.00   0.01  -0.00    -0.01   0.00   0.06
    14   1    -0.01  -0.10  -0.45    -0.04   0.03   0.02    -0.02  -0.03   0.01
    15   1     0.24  -0.40   0.04     0.00   0.01   0.00     0.01   0.00  -0.06
    16   1     0.01  -0.10   0.45     0.04   0.03  -0.02     0.02  -0.03  -0.01
                     34                     35                     36
                      A                      A                      A
 Frequencies --   2924.7165              2963.9460              2964.7021
 Red. masses --      1.0851                 1.0601                 1.0594
 Frc consts  --      5.4688                 5.4872                 5.4864
 IR Inten    --      0.0000                 0.0000                 0.0000
  Atom  AN      X      Y      Z        X      Y      Z        X      Y      Z
     1   6     0.00   0.01  -0.06     0.04  -0.00   0.01    -0.04   0.00  -0.01
     2   6     0.00   0.00  -0.00     0.00   0.00   0.00    -0.00  -0.00  -0.00
     3   1     0.19  -0.02   0.10    -0.52   0.07  -0.39     0.51  -0.07   0.37
     4   1    -0.20  -0.09   0.62    -0.04  -0.03   0.21     0.04   0.03  -0.20
     5   1    -0.00   0.00   0.00     0.01  -0.03  -0.00    -0.01   0.02   0.00
     6   6     0.00  -0.00  -0.00    -0.00   0.00  -0.00    -0.00   0.00  -0.00
     7   6     0.00  -0.01  -0.06    -0.04  -0.00  -0.01    -0.04  -0.00  -0.01
     8   1    -0.00  -0.00   0.00    -0.01  -0.03   0.00    -0.01  -0.02   0.00
     9   1     0.19   0.02   0.10     0.52   0.07   0.39     0.51   0.07   0.37
    10   1    -0.20   0.09   0.62     0.04  -0.03  -0.21     0.04  -0.03  -0.20
    11   6    -0.00  -0.00   0.01    -0.00  -0.01   0.01     0.01   0.01  -0.00
    12   6    -0.00   0.00   0.01     0.00  -0.01  -0.01     0.01  -0.01  -0.00
    13   1     0.02   0.00  -0.11     0.00  -0.00  -0.03     0.01   0.01  -0.02
    14   1     0.03   0.05  -0.01     0.07   0.11  -0.03    -0.11  -0.19   0.05
    15   1     0.02  -0.00  -0.11    -0.00  -0.00   0.03     0.01  -0.01  -0.02
    16   1     0.03  -0.05  -0.01    -0.07   0.11   0.03    -0.11   0.19   0.05
                     37                     38                     39
                      A                      A                      A
 Frequencies --   2967.6902              2972.4729              2986.2817
 Red. masses --      1.0917                 1.0864                 1.0516
 Frc consts  --      5.6648                 5.6556                 5.5255
 IR Inten    --      0.0000                 0.0000                 0.0000
  Atom  AN      X      Y      Z        X      Y      Z        X      Y      Z
     1   6    -0.01  -0.00   0.01     0.01   0.00  -0.00    -0.01  -0.00  -0.00
     2   6    -0.00  -0.00   0.00    -0.00   0.00   0.00    -0.00   0.00  -0.00
     3   1     0.06  -0.01   0.05    -0.13   0.02  -0.10     0.07  -0.01   0.05
     4   1     0.03   0.02  -0.10    -0.04  -0.02   0.15     0.01   0.00  -0.03
     5   1    -0.00   0.01   0.00     0.01  -0.01  -0.00     0.00  -0.00  -0.00
     6   6     0.00  -0.00  -0.00    -0.00  -0.00   0.00     0.00   0.00   0.00
     7   6     0.01  -0.00  -0.01     0.01  -0.00  -0.00     0.01  -0.00   0.00
     8   1     0.00   0.01  -0.00     0.01   0.01  -0.00    -0.00  -0.00   0.00
     9   1    -0.06  -0.01  -0.05    -0.13  -0.02  -0.10    -0.07  -0.01  -0.05
    10   1    -0.03   0.02   0.10    -0.04   0.02   0.15    -0.01   0.00   0.03
    11   6    -0.02  -0.03   0.05     0.03   0.04  -0.03    -0.02  -0.04  -0.02
    12   6     0.02  -0.03  -0.05     0.03  -0.04  -0.03     0.02  -0.04   0.02
    13   1     0.07   0.02  -0.58    -0.02   0.01   0.23    -0.06  -0.04   0.39
    14   1     0.19   0.32  -0.07    -0.31  -0.52   0.14     0.29   0.48  -0.15
    15   1    -0.07   0.02   0.58    -0.02  -0.01   0.23     0.06  -0.04  -0.39
    16   1    -0.19   0.32   0.07    -0.31   0.52   0.14    -0.29   0.48   0.15
                     40                     41                     42
                      A                      A                      A
 Frequencies --   2986.5887              3050.1010              3066.1651
 Red. masses --      1.0620                 1.0743                 1.0887
 Frc consts  --      5.5811                 5.8886                 6.0304
 IR Inten    --      0.0000                 0.0000                 0.0000
  Atom  AN      X      Y      Z        X      Y      Z        X      Y      Z
     1   6    -0.01   0.00  -0.01     0.00  -0.00   0.00     0.00  -0.00   0.00
     2   6     0.00  -0.00  -0.00     0.03  -0.05  -0.00     0.03  -0.05  -0.00
     3   1     0.10  -0.01   0.07    -0.02   0.00  -0.02    -0.02   0.00  -0.02
     4   1    -0.02  -0.01   0.04    -0.00  -0.00   0.01    -0.00  -0.00   0.01
     5   1    -0.00   0.01   0.00    -0.36   0.60   0.04    -0.36   0.61   0.04
     6   6     0.00   0.00  -0.00     0.03   0.05  -0.00    -0.03  -0.05   0.00
     7   6    -0.01  -0.00  -0.01     0.00   0.00   0.00    -0.00  -0.00  -0.00
     8   1    -0.00  -0.01   0.00    -0.36  -0.60   0.04     0.36   0.61  -0.04
     9   1     0.10   0.01   0.07    -0.02  -0.00  -0.02     0.02   0.00   0.02
    10   1    -0.02   0.01   0.04    -0.00   0.00   0.01     0.00  -0.00  -0.01
    11   6    -0.00  -0.01  -0.05    -0.00   0.00   0.00    -0.00   0.00  -0.00
    12   6    -0.00   0.01  -0.05    -0.00  -0.00   0.00     0.00   0.00   0.00
    13   1    -0.09  -0.04   0.64     0.00   0.00  -0.00    -0.00   0.00   0.01
    14   1     0.12   0.19  -0.08    -0.00  -0.01   0.00     0.00   0.00  -0.00
    15   1    -0.09   0.04   0.64     0.00  -0.00  -0.00     0.00   0.00  -0.01
    16   1     0.12  -0.19  -0.08    -0.00   0.01   0.00    -0.00   0.00   0.00

 -------------------
 - Thermochemistry -
 -------------------
 Temperature   298.150 Kelvin.  Pressure   1.00000 Atm.
 Atom     1 has atomic number  6 and mass  12.00000
 Atom     2 has atomic number  6 and mass  12.00000
 Atom     3 has atomic number  1 and mass   1.00783
 Atom     4 has atomic number  1 and mass   1.00783
 Atom     5 has atomic number  1 and mass   1.00783
 Atom     6 has atomic number  6 and mass  12.00000
 Atom     7 has atomic number  6 and mass  12.00000
 Atom     8 has atomic number  1 and mass   1.00783
 Atom     9 has atomic number  1 and mass   1.00783
 Atom    10 has atomic number  1 and mass   1.00783
 Atom    11 has atomic number  6 and mass  12.00000
 Atom    12 has atomic number  6 and mass  12.00000
 Atom    13 has atomic number  1 and mass   1.00783
 Atom    14 has atomic number  1 and mass   1.00783
 Atom    15 has atomic number  1 and mass   1.00783
 Atom    16 has atomic number  1 and mass   1.00783
 Molecular mass:    82.07825 amu.
 Principal axes and moments of inertia in atomic units:
                           1         2         3
     Eigenvalues --   375.05826 391.29196 692.05259
           X            1.00000   0.00000  -0.00298
           Y           -0.00000   1.00000  -0.00000
           Z            0.00298   0.00000   1.00000
 This molecule is an asymmetric top.
 Rotational symmetry number  1.
 Rotational temperatures (Kelvin)      0.23093     0.22135     0.12516
 Rotational constants (GHZ):           4.81190     4.61226     2.60781
 Zero-point vibrational energy     377516.7 (Joules/Mol)
                                   90.22867 (Kcal/Mol)
 Warning -- explicit consideration of   5 degrees of freedom as
           vibrations may cause significant error
 Vibrational temperatures:    211.99   394.48   538.63   644.96   683.38
          (Kelvin)            955.98  1066.55  1201.06  1279.57  1327.95
                             1362.46  1363.30  1397.05  1410.60  1550.26
                             1587.18  1616.37  1630.88  1663.16  1757.21
                             1777.98  1790.98  1905.35  1929.84  1931.89
                             1947.74  1958.63  2116.93  2125.47  2141.34
                             2155.46  2500.55  4206.31  4208.01  4264.46
                             4265.55  4269.84  4276.73  4296.59  4297.04
                             4388.42  4411.53
 
 Zero-point correction=                           0.143789 (Hartree/Particle)
 Thermal correction to Energy=                    0.149367
 Thermal correction to Enthalpy=                  0.150311
 Thermal correction to Gibbs Free Energy=         0.115064
 Sum of electronic and zero-point Energies=            -17.787650
 Sum of electronic and thermal Energies=               -17.782072
 Sum of electronic and thermal Enthalpies=             -17.781128
 Sum of electronic and thermal Free Energies=          -17.816375
 
                     E (Thermal)             CV                S
                      KCal/Mol        Cal/Mol-Kelvin    Cal/Mol-Kelvin
 Total                   93.729             21.567             74.183
 Electronic               0.000              0.000              0.000
 Translational            0.889              2.981             39.129
 Rotational               0.889              2.981             26.121
 Vibrational             91.952             15.605              8.933
 Vibration     1          0.617              1.906              2.706
 Vibration     2          0.676              1.721              1.570
 Vibration     3          0.745              1.525              1.062
 Vibration     4          0.807              1.365              0.801
 Vibration     5          0.832              1.306              0.724
                       Q            Log10(Q)             Ln(Q)
 Total Bot       0.118619D-52        -52.925846       -121.866265
 Total V=0       0.163015D+14         13.212228         30.422280
 Vib (Bot)       0.355748D-65        -65.448857       -150.701563
 Vib (Bot)    1  0.137723D+01          0.139007          0.320075
 Vib (Bot)    2  0.703370D+00         -0.152816         -0.351872
 Vib (Bot)    3  0.484854D+00         -0.314389         -0.723908
 Vib (Bot)    4  0.383089D+00         -0.416700         -0.959487
 Vib (Bot)    5  0.353632D+00         -0.451449         -1.039499
 Vib (V=0)       0.488897D+01          0.689218          1.586982
 Vib (V=0)    1  0.196518D+01          0.293403          0.675586
 Vib (V=0)    2  0.136298D+01          0.134489          0.309671
 Vib (V=0)    3  0.119648D+01          0.077905          0.179383
 Vib (V=0)    4  0.112989D+01          0.053035          0.122118
 Vib (V=0)    5  0.111242D+01          0.046268          0.106536
 Electronic      0.100000D+01          0.000000          0.000000
 Translational   0.292278D+08          7.465796         17.190631
 Rotational      0.114081D+06          5.057215         11.644668
 ***** Axes restored to original set *****
 -------------------------------------------------------------------
 Center     Atomic                   Forces (Hartrees/Bohr)
 Number     Number              X              Y              Z
 -------------------------------------------------------------------
      1        6           0.000007814   -0.000006050    0.000005911
      2        6          -0.000007200   -0.000000665    0.000002329
      3        1          -0.000000505   -0.000001303   -0.000000429
      4        1          -0.000002519   -0.000000616    0.000001193
      5        1          -0.000000415    0.000001655    0.000000541
      6        6           0.000007204   -0.000000716   -0.000002317
      7        6          -0.000007832   -0.000006055   -0.000005925
      8        1           0.000000417    0.000001653   -0.000000542
      9        1           0.000000505   -0.000001306    0.000000428
     10        1           0.000002516   -0.000000616   -0.000001194
     11        6           0.000011622    0.000009469   -0.000008474
     12        6          -0.000011612    0.000009488    0.000008479
     13        1          -0.000000170   -0.000002023   -0.000002904
     14        1           0.000000401   -0.000000448    0.000000918
     15        1           0.000000173   -0.000002024    0.000002902
     16        1          -0.000000398   -0.000000444   -0.000000917
 -------------------------------------------------------------------
 Cartesian Forces:  Max     0.000011622 RMS     0.000004630
 Z-matrix is all fixed cartesians, so copy forces.
 Leave Link  716 at Tue May 27 14:36:57 2025, MaxMem=   104857600 cpu:               0.0 elap:               0.1
 (Enter /mlatom/software/Gaussian/g16-avx2/l103.exe)

 GradGradGradGradGradGradGradGradGradGradGradGradGradGradGradGradGradGrad
 Berny optimization.
 Search for a local minimum.
 Step number   1 out of a maximum of    2
 All quantities printed in internal units (Hartrees-Bohrs-Radians)
 Second derivative matrix not updated -- analytic derivatives used.
 ITU=  0
     Eigenvalues ---    0.00146   0.00508   0.01101   0.01531   0.02771
     Eigenvalues ---    0.02861   0.04197   0.04401   0.04968   0.04985
     Eigenvalues ---    0.05172   0.05446   0.05812   0.06372   0.07104
     Eigenvalues ---    0.07335   0.08629   0.08730   0.09615   0.12622
     Eigenvalues ---    0.13235   0.15834   0.15843   0.18411   0.18915
     Eigenvalues ---    0.20459   0.21736   0.33891   0.35229   0.50243
     Eigenvalues ---    0.52241   0.60651   0.64238   0.71704   0.72136
     Eigenvalues ---    0.72657   0.73125   0.75150   0.76260   0.80701
     Eigenvalues ---    0.81859   1.43287
 Angle between quadratic step and forces=  74.92 degrees.
 Linear search not attempted -- first point.
 B after Tr=     0.000000   -0.000000    0.000000
         Rot=    1.000000   -0.000000   -0.000001   -0.000000 Ang=  -0.00 deg.
 Variable       Old X    -DE/DX   Delta X   Delta X   Delta X     New X
                                 (Linear)    (Quad)   (Total)
    X1       -2.80421   0.00001   0.00000   0.00004   0.00004  -2.80417
    Y1        0.07974  -0.00001   0.00000  -0.00005  -0.00005   0.07969
    Z1        0.22111   0.00001   0.00000   0.00006   0.00007   0.22118
    X2       -1.24534  -0.00001   0.00000   0.00000   0.00000  -1.24534
    Y2        2.43961  -0.00000   0.00000  -0.00002  -0.00002   2.43959
    Z2        0.09988   0.00000   0.00000   0.00010   0.00010   0.09999
    X3       -4.49090  -0.00000   0.00000   0.00000   0.00000  -4.49090
    Y3        0.30454  -0.00000   0.00000  -0.00002  -0.00002   0.30452
    Z3       -0.95043  -0.00000   0.00000   0.00011   0.00012  -0.95032
    X4       -3.45277  -0.00000   0.00000   0.00005   0.00006  -3.45271
    Y4       -0.19253  -0.00000   0.00000  -0.00019  -0.00019  -0.19272
    Z4        2.16853   0.00000   0.00000   0.00005   0.00006   2.16859
    X5       -2.27691  -0.00000   0.00000   0.00001   0.00001  -2.27690
    Y5        4.20135   0.00000   0.00000  -0.00002  -0.00002   4.20134
    Z5        0.20518   0.00000   0.00000   0.00018   0.00018   0.20536
    X6        1.24534   0.00001   0.00000  -0.00000  -0.00000   1.24534
    Y6        2.43961  -0.00000   0.00000  -0.00002  -0.00002   2.43959
    Z6       -0.09988  -0.00000   0.00000  -0.00010  -0.00010  -0.09998
    X7        2.80421  -0.00001   0.00000  -0.00004  -0.00004   2.80417
    Y7        0.07974  -0.00001   0.00000  -0.00005  -0.00005   0.07969
    Z7       -0.22111  -0.00001   0.00000  -0.00006  -0.00007  -0.22118
    X8        2.27691   0.00000   0.00000  -0.00001  -0.00001   2.27690
    Y8        4.20135   0.00000   0.00000  -0.00002  -0.00002   4.20134
    Z8       -0.20518  -0.00000   0.00000  -0.00017  -0.00018  -0.20536
    X9        4.49090   0.00000   0.00000  -0.00000   0.00000   4.49090
    Y9        0.30454  -0.00000   0.00000  -0.00002  -0.00002   0.30452
    Z9        0.95043   0.00000   0.00000  -0.00011  -0.00012   0.95032
   X10        3.45277   0.00000   0.00000  -0.00006  -0.00006   3.45271
   Y10       -0.19253  -0.00000   0.00000  -0.00019  -0.00019  -0.19272
   Z10       -2.16853  -0.00000   0.00000  -0.00005  -0.00006  -2.16859
   X11       -1.29183   0.00001   0.00000   0.00008   0.00008  -1.29175
   Y11       -2.22149   0.00001   0.00000   0.00007   0.00007  -2.22142
   Z11       -0.63774  -0.00001   0.00000  -0.00012  -0.00012  -0.63786
   X12        1.29183  -0.00001   0.00000  -0.00008  -0.00008   1.29175
   Y12       -2.22149   0.00001   0.00000   0.00007   0.00007  -2.22142
   Z12        0.63774   0.00001   0.00000   0.00012   0.00012   0.63786
   X13       -1.03568  -0.00000   0.00000   0.00021   0.00021  -1.03547
   Y13       -2.14817  -0.00000   0.00000   0.00022   0.00022  -2.14795
   Z13       -2.68437  -0.00000   0.00000  -0.00010  -0.00010  -2.68447
   X14       -2.31990   0.00000   0.00000   0.00007   0.00007  -2.31983
   Y14       -3.95238  -0.00000   0.00000   0.00001   0.00001  -3.95237
   Z14       -0.18521   0.00000   0.00000  -0.00032  -0.00032  -0.18553
   X15        1.03568   0.00000   0.00000  -0.00021  -0.00021   1.03547
   Y15       -2.14818  -0.00000   0.00000   0.00022   0.00022  -2.14795
   Z15        2.68436   0.00000   0.00000   0.00010   0.00010   2.68446
   X16        2.31990  -0.00000   0.00000  -0.00007  -0.00007   2.31983
   Y16       -3.95238  -0.00000   0.00000   0.00002   0.00001  -3.95237
   Z16        0.18521  -0.00000   0.00000   0.00032   0.00032   0.18553
         Item               Value     Threshold  Converged?
 Maximum Force            0.000012     0.000450     YES
 RMS     Force            0.000005     0.000300     YES
 Maximum Displacement     0.000319     0.001800     YES
 RMS     Displacement     0.000120     0.001200     YES
 Predicted change in Energy=-3.470678D-09
 Optimization completed.
    -- Stationary point found.
 GradGradGradGradGradGradGradGradGradGradGradGradGradGradGradGradGradGrad

 Leave Link  103 at Tue May 27 14:36:57 2025, MaxMem=   104857600 cpu:               0.0 elap:               0.1
 (Enter /mlatom/software/Gaussian/g16-avx2/l9999.exe)
 1\1\GINC-B002\Freq\RExternal='/mlatom/software/miniconda3/bin/python /
 mlatom/software/mlatom_xacs/ml\ZDO\C6H10\UNKNOWN\27-May-2025\0\\#p Fre
 q external='/mlatom/software/miniconda3/bin/python /mlatom/software/ml
 atom_xacs/mlatom/interfaces/gaussian_interface.py model_predict_kwargs
 '\\42d5ff51-63dd-4440-98ad-d579b99a07d5\\0,1\C,-1.4839223278,0.0421971
 365,0.1170079863\C,-0.6590051416,1.2909859647,0.0528556231\H,-2.376484
 3624,0.1611560433,-0.5029464803\H,-1.8271269505,-0.1018822449,1.147537
 263\H,-1.2048878263,2.223260895,0.1085745762\C,0.6590048511,1.29098607
 22,-0.0528558834\C,1.483922436,0.0421974546,-0.1170073072\H,1.20488731
 49,2.2232611002,-0.1085754808\H,2.3764836626,0.1611566398,0.5029482798
 \H,1.8271284385,-0.1018816177,-1.1475361731\C,-0.6836074592,-1.1755598
 059,-0.3374760081\C,0.6836075619,-1.1755599876,0.3374755319\H,-0.54805
 83582,-1.1367649209,-1.4205049799\H,-1.2276370041,-2.091510457,-0.0980
 099558\H,0.5480583324,-1.1367660635,1.4205045284\H,1.2276372297,-2.091
 5103805,0.0980087665\\Version=ES64L-G16RevA.03\HF=-17.9314389\RMSD=0.0
 00e+00\RMSF=4.630e-06\ZeroPoint=0.1437885\Thermal=0.1493669\Dipole=0.,
 -0.3304054,0.\PG=C01 [X(C6H10)]\NImag=0\\0.50532667,-0.00185217,0.4614
 0308,0.01335842,-0.00696317,0.49534695,-0.10923171,-0.06651047,0.00111
 623,0.84104138,-0.06782529,-0.17183415,0.00422128,-0.02572379,0.536135
 99,0.00370145,0.00633317,-0.06069418,-0.06146303,0.00432257,0.12887026
 ,-0.18872041,0.02207998,-0.10708797,-0.02124620,-0.00434070,-0.0106285
 7,0.22231852,0.02065646,-0.04356131,0.01332623,-0.02317331,-0.00073757
 ,-0.01412898,-0.02348048,0.05465575,-0.10649035,0.01430753,-0.11908927
 ,-0.00020841,-0.00056308,0.00157009,0.12301956,-0.01573938,0.13710758,
 -0.06022773,-0.00602612,0.06341444,-0.01072937,-0.00922685,0.01768411,
 0.00558781,0.00409259,-0.02540472,0.07207198,-0.00828834,-0.04358227,0
 .03243032,-0.01362812,-0.00778534,0.02377173,-0.00034618,0.00101834,0.
 00477851,0.01066071,0.05586031,0.06029891,0.02726388,-0.23865479,0.005
 85126,0.00524329,-0.00226472,0.00234191,0.00430984,-0.02567348,-0.0735
 3248,-0.03279457,0.27820643,0.00595361,-0.01194651,-0.00102136,-0.1054
 0763,0.10785726,0.00711650,0.00085600,-0.00065174,0.00006454,-0.000078
 38,-0.00007713,-0.00001069,0.12649299,0.01027717,-0.02453242,-0.002162
 74,0.11030356,-0.23073795,-0.01089370,0.00047067,0.00074259,-0.0002349
 2,-0.00005377,-0.00027332,0.00016233,-0.12134407,0.25992958,-0.0018522
 1,0.00100250,0.00192929,0.00786432,-0.01040422,-0.03392099,0.00027441,
 -0.00027852,0.00032868,0.00022286,-0.00055059,-0.00004515,-0.00913247,
 0.01283654,0.02400726,-0.02707615,-0.01403995,0.00295957,-0.55425141,0
 .00192376,0.04316058,-0.00023985,-0.00195629,0.00022695,0.00071585,0.0
 0035803,-0.00126386,-0.02233239,0.00426070,0.00117716,0.84104194,-0.02
 747704,-0.00319430,0.00264148,-0.00191871,-0.07894907,-0.00013560,-0.0
 0300536,-0.00367955,-0.00006905,-0.00254149,-0.00251698,0.00067700,0.0
 2893298,-0.00369806,-0.00247080,0.02572040,0.53613538,0.00336944,0.000
 80468,0.00045974,0.04316059,0.00013534,-0.03437052,-0.00094876,-0.0006
 4978,-0.00019783,0.00055979,0.00093200,-0.00018081,0.00181728,-0.00036
 747,-0.00136076,-0.06146317,-0.00432365,0.12887030,0.00326255,0.000292
 55,0.00037098,-0.02707573,0.02747730,0.00336931,0.00059477,-0.00003941
 ,0.00006171,-0.00029329,0.00005406,-0.00006335,-0.00443092,0.00011500,
 0.00162706,-0.10923034,0.06782465,0.00370110,0.50532659,-0.00029259,-0
 .00084741,-0.00027994,0.01404021,-0.00319474,-0.00080470,0.00004476,0.
 00002020,0.00001547,0.00012782,0.00013992,-0.00007583,-0.00107684,0.00
 177695,0.00040678,0.06650985,-0.17183555,-0.00633272,0.00185175,0.4614
 0309,0.00037099,0.00027992,-0.00481003,0.00295948,-0.00264150,0.000459
 76,-0.00031342,-0.00021456,0.00003312,0.00069076,0.00087055,-0.0002864
 3,0.00127551,-0.00013216,0.01278554,0.00111591,-0.00422082,-0.06069414
 ,0.01335846,0.00696313,0.49534692,-0.00443092,0.00107691,0.00127551,-0
 .02233273,-0.02893278,0.00181741,-0.00062727,-0.00078644,0.00016589,-0
 .00057125,-0.00065192,-0.00002292,0.00069743,-0.00077927,-0.00045312,-
 0.10540986,-0.10785851,0.00711706,0.00595363,0.01194619,-0.00102139,0.
 12649546,-0.00011493,0.00177693,0.00013220,-0.00426050,-0.00369770,0.0
 0036746,-0.00005522,-0.00010802,0.00006981,-0.00003285,-0.00008220,-0.
 00009640,0.00077928,0.00140268,-0.00012918,-0.11030481,-0.23073562,0.0
 1089445,-0.01027749,-0.02453244,0.00216286,0.12134539,0.25992698,0.001
 62706,-0.00040676,0.01278555,0.00117721,0.00247080,-0.00136077,0.00149
 428,0.00186791,0.00008610,-0.00171396,-0.00236547,0.00042705,-0.000453
 12,0.00012916,-0.00496532,0.00786489,0.01040496,-0.03392108,-0.0018521
 7,-0.00100237,0.00192927,-0.00913311,-0.01283744,0.02400737,0.00059477
 ,-0.00004476,-0.00031342,-0.00023979,0.00300532,-0.00094876,0.00024058
 ,0.00002173,0.00007712,0.00004661,0.00002861,-0.00005921,-0.00062726,0
 .00005523,0.00149427,-0.02124591,0.00434088,-0.01062846,-0.18872057,-0
 .02207887,-0.10708811,0.00085600,-0.00047067,0.00027441,0.22231868,0.0
 0003941,0.00002021,0.00021456,0.00195625,-0.00367960,0.00064981,-0.000
 02173,-0.00006150,0.00001300,0.00003712,0.00001686,-0.00001808,0.00078
 645,-0.00010803,-0.00186793,0.02317350,-0.00073780,0.01412912,-0.02065
 533,-0.04356096,-0.01332543,0.00065174,0.00074259,0.00027852,0.0234791
 8,0.05465538,0.00006171,-0.00001548,0.00003311,0.00022694,0.00006906,-
 0.00019783,0.00007712,-0.00001300,0.00000990,-0.00008781,0.00000732,0.
 00007557,0.00016589,-0.00006981,0.00008611,-0.00020852,0.00056310,0.00
 157003,-0.10649051,-0.01430674,-0.11908943,0.00006454,0.00023492,0.000
 32867,0.12301974,0.01573844,0.13710778,-0.00029329,-0.00012781,0.00069
 075,0.00071587,0.00254146,0.00055977,0.00004661,-0.00003712,-0.0000878
 1,-0.00007972,-0.00007339,-0.00014002,-0.00057124,0.00003285,-0.001713
 94,-0.01072917,0.00922695,0.01768383,-0.06022774,0.00602653,0.06341433
 ,-0.00007837,0.00005377,0.00022287,0.00558781,-0.00409271,-0.02540472,
 0.07207195,-0.00005405,0.00013992,-0.00087056,-0.00035806,-0.00251701,
 -0.00093200,-0.00002861,0.00001686,-0.00000732,0.00007339,0.00014343,-
 0.00006547,0.00065192,-0.00008220,0.00236549,0.01362820,-0.00778567,-0
 .02377187,0.00828875,-0.04358262,-0.03243159,0.00007712,-0.00027332,0.
 00055059,0.00034615,0.00101835,-0.00477834,-0.01066116,0.05586076,-0.0
 0006335,0.00007583,-0.00028642,-0.00126387,-0.00067698,-0.00018081,-0.
 00005921,0.00001808,0.00007557,-0.00014002,0.00006547,0.00020838,-0.00
 002292,0.00009640,0.00042704,0.00585115,-0.00524332,-0.00226460,0.0602
 9884,-0.02726513,-0.23865443,-0.00001069,-0.00016233,-0.00004515,0.002
 34191,-0.00430996,-0.02567348,-0.07353238,0.03279604,0.27820601,-0.101
 04266,0.05223134,0.02187004,0.00861538,-0.00768675,-0.00390774,-0.0161
 9388,0.02136400,0.00639432,-0.00587810,0.00897994,0.00552866,-0.000843
 75,-0.00353876,0.00023840,0.00104215,0.00069666,-0.00098538,-0.0224133
 5,-0.00928965,-0.00707771,0.00008222,0.00027517,0.00029424,-0.00206360
 ,-0.00286736,0.00096938,0.00053809,0.00054453,-0.00027103,0.46940631,0
 .05540552,-0.14590410,-0.03268053,0.00793072,-0.03171080,-0.00687946,0
 .00522982,-0.00496691,-0.00141022,0.00072935,-0.00036259,-0.00265992,-
 0.00268215,-0.00390588,-0.00047988,0.00205433,0.00243369,-0.00041946,-
 0.02287497,-0.00325739,-0.00949307,0.00038048,0.00044351,0.00025260,-0
 .00384690,-0.00393350,0.00104886,0.00011910,0.00003846,-0.00044679,0.0
 3500729,0.50424191,0.02218171,-0.03290275,-0.08019975,-0.00045584,-0.0
 0054926,0.00121065,-0.00895916,0.01207812,0.00425381,0.01708002,-0.023
 48405,-0.01301604,0.00033743,0.00100729,0.00090736,-0.00024490,0.00057
 767,0.00036256,0.00387158,-0.00188792,0.00380374,0.00009491,0.00004549
 ,-0.00000824,0.00100427,0.00144620,0.00021066,0.00106177,0.00037119,0.
 00030286,-0.01676190,-0.01396750,0.52129196,-0.02241303,0.00928983,-0.
 00707764,0.00104212,-0.00069665,-0.00098537,-0.00206353,0.00286735,0.0
 0096936,0.00053808,-0.00054454,-0.00027103,0.00008222,-0.00027516,0.00
 029424,0.00861538,0.00768632,-0.00390769,-0.10104377,-0.05223173,0.021
 87051,-0.00084369,0.00353874,0.00023839,-0.01619415,-0.02136385,0.0063
 9438,-0.00587822,-0.00897989,0.00552872,-0.16786663,-0.00069242,-0.052
 91095,0.46940561,0.02287518,-0.00325769,0.00949315,-0.00205432,0.00243
 372,0.00041946,0.00384689,-0.00393357,-0.00104886,-0.00011910,0.000038
 47,0.00044680,-0.00038048,0.00044351,-0.00025261,-0.00793115,-0.031710
 75,0.00687959,-0.05540591,-0.14590277,0.03268045,0.00268212,-0.0039059
 4,0.00047990,-0.00522974,-0.00496668,0.00141018,-0.00072924,-0.0003624
 1,0.00265982,0.00069335,-0.06444431,0.00032032,-0.03500699,0.50424265,
 0.00387154,0.00188790,0.00380371,-0.00024490,-0.00057767,0.00036256,0.
 00100424,-0.00144620,0.00021067,0.00106177,-0.00037120,0.00030286,0.00
 009491,-0.00004550,-0.00000824,-0.00045581,0.00054939,0.00121062,0.022
 18220,0.03290267,-0.08019992,0.00033741,-0.00100727,0.00090737,-0.0089
 5929,-0.01207802,0.00425384,0.01708027,0.02348383,-0.01301609,-0.05291
 096,-0.00031985,-0.09595755,-0.01676167,0.01396773,0.52129184,-0.00409
 305,0.00257625,0.01702448,0.00005147,-0.00031208,-0.00027196,0.0000949
 6,-0.00010376,0.00075577,-0.00144532,0.00336151,0.00177289,-0.00014228
 ,-0.00013579,-0.00014923,0.00021903,-0.00031161,0.00010447,0.00096533,
 0.00060659,-0.00075434,-0.00004988,0.00003791,0.00007494,0.00026774,0.
 00022456,0.00013264,-0.00054109,-0.00012297,0.00020155,-0.04636175,-0.
 00347961,0.03006317,-0.00041253,0.00074468,-0.02876428,0.05812495,0.00
 582999,-0.00152565,-0.02482458,0.00063983,0.00050718,-0.00054239,-0.00
 039446,0.00078633,-0.00030480,0.00269232,-0.00366739,-0.00255675,0.000
 01481,0.00013258,0.00019382,0.00000066,-0.00007448,0.00007451,-0.00023
 462,0.00040762,-0.00096125,0.00005158,0.00001632,0.00007484,-0.0000082
 1,-0.00009388,0.00003892,-0.00031234,0.00021145,-0.00001776,-0.0033348
 9,-0.04559938,0.01211607,0.00003423,0.00068589,0.00062321,0.00040824,0
 .05143874,0.00426246,-0.00283289,-0.01291435,0.00045686,0.00033597,0.0
 0025101,-0.00011476,0.00038607,0.00085556,0.00128321,-0.00249233,-0.00
 023442,-0.00000263,0.00019277,0.00000926,-0.00030071,-0.00029829,0.000
 12997,0.00090017,0.00027976,0.00076276,0.00002411,0.00006021,-0.000152
 66,0.00036556,0.00022612,0.00024769,-0.00049700,-0.00012499,0.00050619
 ,0.03051313,0.01148854,-0.26792485,-0.00317016,0.00068141,-0.01968656,
 -0.03357216,-0.01206495,0.31168976,0.00698148,0.01330386,-0.00233419,-
 0.00113240,0.00224265,0.00072714,0.00020215,0.00004108,-0.00001178,0.0
 0071985,0.00017105,-0.00038989,0.00033864,0.00074106,0.00005341,-0.000
 03827,0.00061448,-0.00003531,-0.00555546,-0.00030363,-0.00349152,0.000
 06284,0.00009150,-0.00002012,-0.00111802,-0.00140991,0.00033524,0.0001
 6405,0.00012725,-0.00024173,-0.09768078,-0.09594531,0.02738779,-0.0189
 2739,-0.02340930,0.00501446,-0.00226993,-0.00559514,0.00336222,0.11734
 360,-0.01012404,-0.02660797,0.00370118,0.00346933,-0.00445728,-0.00156
 492,0.00002106,0.00002341,0.00029145,-0.00062292,0.00082769,0.00007308
 ,-0.00071530,-0.00129928,-0.00010603,0.00071196,0.00029878,-0.00009206
 ,-0.00071004,0.00109950,-0.00065982,0.00009692,0.00019292,0.00019053,0
 .00002864,-0.00012117,0.00005923,0.00010253,0.00001363,-0.00007304,-0.
 09603226,-0.20216944,0.04554531,-0.00299147,-0.00158893,0.00009316,-0.
 00325608,-0.00378938,0.00363685,0.10966108,0.23678897,-0.00328385,-0.0
 0855527,0.00199201,0.00098941,-0.00172955,0.00019537,-0.00008603,0.000
 24598,-0.00010516,-0.00039207,-0.00092742,0.00055559,-0.00023958,-0.00
 043325,0.00001072,0.00013446,-0.00004564,-0.00005984,-0.00231410,-0.00
 000066,-0.00046432,-0.00001339,0.00002474,-0.00003815,-0.00037922,-0.0
 0046431,0.00028698,-0.00022890,-0.00000475,0.00007377,0.02739846,0.045
 95437,-0.05864007,-0.00812185,-0.01069363,0.00308948,0.01725392,0.0280
 8258,-0.01230431,-0.03109228,-0.05097693,0.06485863,0.00096533,-0.0006
 0660,-0.00075433,0.00021903,0.00031161,0.00010447,0.00026773,-0.000224
 57,0.00013264,-0.00054109,0.00012298,0.00020155,-0.00004988,-0.0000379
 1,0.00007494,0.00005146,0.00031208,-0.00027196,-0.00409315,-0.00257618
 ,0.01702474,-0.00014228,0.00013580,-0.00014923,0.00009496,0.00010377,0
 .00075577,-0.00144538,-0.00336153,0.00177292,-0.00041254,-0.00074475,-
 0.02876429,-0.04636168,0.00347970,0.03006305,-0.00498575,0.00014494,-0
 .00373973,0.00057811,0.00009294,-0.00013213,0.05812496,0.00023462,0.00
 040762,0.00096126,-0.00000067,-0.00007449,-0.00007451,0.00000820,-0.00
 009387,-0.00003892,0.00031235,0.00021144,0.00001776,-0.00005157,0.0000
 1632,-0.00007484,-0.00063983,0.00050718,0.00054239,-0.00582996,-0.0015
 2549,0.02482437,-0.00001481,0.00013257,-0.00019382,0.00039446,0.000786
 32,0.00030480,-0.00269234,-0.00366731,0.00255674,-0.00003422,0.0006859
 0,-0.00062296,0.00333498,-0.04559952,-0.01211696,-0.00014489,0.0006027
 5,0.00030081,-0.00006306,-0.00003869,-0.00036932,-0.00040840,0.0514388
 1,0.00090017,-0.00027977,0.00076276,-0.00030070,0.00029829,0.00012997,
 0.00036556,-0.00022613,0.00024769,-0.00049700,0.00012500,0.00050619,0.
 00002411,-0.00006021,-0.00015266,0.00045686,-0.00033597,0.00025100,0.0
 0426251,0.00283281,-0.01291442,-0.00000263,-0.00019277,0.00000926,-0.0
 0011477,-0.00038607,0.00085556,0.00128324,0.00249232,-0.00023444,-0.00
 317017,-0.00068143,-0.01968656,0.03051303,-0.01148944,-0.26792477,-0.0
 0373974,-0.00030078,-0.00151136,0.00022942,-0.00022493,0.00027632,-0.0
 3357206,0.01206598,0.31168967,-0.00555545,0.00030369,-0.00349152,-0.00
 003828,-0.00061448,-0.00003531,-0.00111800,0.00140992,0.00033523,0.000
 16405,-0.00012725,-0.00024173,0.00006284,-0.00009150,-0.00002012,-0.00
 113246,-0.00224268,0.00072716,0.00698145,-0.01330421,-0.00233419,0.000
 33864,-0.00074107,0.00005342,0.00020215,-0.00004108,-0.00001179,0.0007
 1986,-0.00017105,-0.00038989,-0.01892711,0.02340949,0.00501439,-0.0976
 7880,0.09594431,0.02738706,0.00057811,0.00006306,0.00022942,0.00033150
 ,0.00026766,0.00050715,-0.00226984,0.00559513,0.00336217,0.11734133,0.
 00071010,0.00109950,0.00065985,-0.00071195,0.00029880,0.00009206,-0.00
 002863,-0.00012118,-0.00005923,-0.00010253,0.00001363,0.00007304,-0.00
 009692,0.00019292,-0.00019053,-0.00346936,-0.00445721,0.00156492,0.010
 12368,-0.02660792,-0.00370107,0.00071528,-0.00129927,0.00010603,-0.000
 02106,0.00002341,-0.00029145,0.00062292,0.00082769,-0.00007307,0.00299
 162,-0.00158917,-0.00009320,0.09603126,-0.20217167,-0.04554521,-0.0000
 9295,-0.00003869,0.00022493,-0.00026765,0.00082722,-0.00010695,0.00325
 611,-0.00378955,-0.00363691,-0.10965992,0.23679151,-0.00231410,0.00000
 068,-0.00046432,0.00013446,0.00004563,-0.00005985,-0.00037922,0.000464
 31,0.00028698,-0.00022890,0.00000475,0.00007377,-0.00001339,-0.0000247
 4,-0.00003815,0.00098944,0.00172955,0.00019536,-0.00328379,0.00855538,
 0.00199200,-0.00023958,0.00043325,0.00001072,-0.00008603,-0.00024598,-
 0.00010515,-0.00039206,0.00092742,0.00055559,-0.00812175,0.01069373,0.
 00308946,0.02739773,-0.04595426,-0.05863982,-0.00013212,0.00036932,0.0
 0027631,0.00050715,0.00010694,0.00027296,0.01725362,-0.02808278,-0.012
 30423,-0.03109146,0.05097679,0.06485835\\-0.00000781,0.00000605,-0.000
 00591,0.00000720,0.00000066,-0.00000233,0.00000050,0.00000130,0.000000
 43,0.00000252,0.00000062,-0.00000119,0.00000042,-0.00000166,-0.0000005
 4,-0.00000720,0.00000072,0.00000232,0.00000783,0.00000606,0.00000593,-
 0.00000042,-0.00000165,0.00000054,-0.00000051,0.00000131,-0.00000043,-
 0.00000252,0.00000062,0.00000119,-0.00001162,-0.00000947,0.00000847,0.
 00001161,-0.00000949,-0.00000848,0.00000017,0.00000202,0.00000290,-0.0
 0000040,0.00000045,-0.00000092,-0.00000017,0.00000202,-0.00000290,0.00
 000040,0.00000044,0.00000092\\\@


 HE THAT FOLLOWS NATURE IS NEVER LOST.

                             -- BACON
 Job cpu time:       0 days  0 hours  0 minutes  0.6 seconds.
 Elapsed time:       0 days  0 hours  0 minutes  2.8 seconds.
 File lengths (MBytes):  RWF=     22 Int=      0 D2E=      0 Chk=      2 Scr=      2
 Normal termination of Gaussian 16 at Tue May 27 14:36:58 2025.
