 Entering Gaussian System, Link 0=/mlatom/software/Gaussian/g16-avx2/g16
 Input=gaussian.com
 Output=gaussian.log
 Initial command:
 /mlatom/software/Gaussian/g16-avx2/l1.exe "/mlatom/home/huangyh/projects/delta_learning/paper/revision1/Starting_from_ub3lyp_d4/c60/AL/r/Gau-144960.inp" -scrdir="/mlatom/home/huangyh/projects/delta_learning/paper/revision1/Starting_from_ub3lyp_d4/c60/AL/r/"
 Entering Link 1 = /mlatom/software/Gaussian/g16-avx2/l1.exe PID=    144961.
  
 Copyright (c) 1988,1990,1992,1993,1995,1998,2003,2009,2016,
            Gaussian, Inc.  All Rights Reserved.
  
 This is part of the Gaussian(R) 16 program.  It is based on
 the Gaussian(R) 09 system (copyright 2009, Gaussian, Inc.),
 the Gaussian(R) 03 system (copyright 2003, Gaussian, Inc.),
 the Gaussian(R) 98 system (copyright 1998, Gaussian, Inc.),
 the Gaussian(R) 94 system (copyright 1995, Gaussian, Inc.),
 the Gaussian 92(TM) system (copyright 1992, Gaussian, Inc.),
 the Gaussian 90(TM) system (copyright 1990, Gaussian, Inc.),
 the Gaussian 88(TM) system (copyright 1988, Gaussian, Inc.),
 the Gaussian 86(TM) system (copyright 1986, Carnegie Mellon
 University), and the Gaussian 82(TM) system (copyright 1983,
 Carnegie Mellon University). Gaussian is a federally registered
 trademark of Gaussian, Inc.
  
 This software contains proprietary and confidential information,
 including trade secrets, belonging to Gaussian, Inc.
  
 This software is provided under written license and may be
 used, copied, transmitted, or stored only in accord with that
 written license.
  
 The following legend is applicable only to US Government
 contracts under FAR:
  
                    RESTRICTED RIGHTS LEGEND
  
 Use, reproduction and disclosure by the US Government is
 subject to restrictions as set forth in subparagraphs (a)
 and (c) of the Commercial Computer Software - Restricted
 Rights clause in FAR 52.227-19.
  
 Gaussian, Inc.
 340 Quinnipiac St., Bldg. 40, Wallingford CT 06492
  
  
 ---------------------------------------------------------------
 Warning -- This program may not be used in any manner that
 competes with the business of Gaussian, Inc. or will provide
 assistance to any competitor of Gaussian, Inc.  The licensee
 of this program is prohibited from giving any competitor of
 Gaussian, Inc. access to this program.  By using this program,
 the user acknowledges that Gaussian, Inc. is engaged in the
 business of creating and licensing software in the field of
 computational chemistry and represents and warrants to the
 licensee that it is not a competitor of Gaussian, Inc. and that
 it will not use this program in any manner prohibited above.
 ---------------------------------------------------------------
  

 Cite this work as:
 Gaussian 16, Revision A.03,
 M. J. Frisch, G. W. Trucks, H. B. Schlegel, G. E. Scuseria, 
 M. A. Robb, J. R. Cheeseman, G. Scalmani, V. Barone, 
 G. A. Petersson, H. Nakatsuji, X. Li, M. Caricato, A. V. Marenich, 
 J. Bloino, B. G. Janesko, R. Gomperts, B. Mennucci, H. P. Hratchian, 
 J. V. Ortiz, A. F. Izmaylov, J. L. Sonnenberg, D. Williams-Young, 
 F. Ding, F. Lipparini, F. Egidi, J. Goings, B. Peng, A. Petrone, 
 T. Henderson, D. Ranasinghe, V. G. Zakrzewski, J. Gao, N. Rega, 
 G. Zheng, W. Liang, M. Hada, M. Ehara, K. Toyota, R. Fukuda, 
 J. Hasegawa, M. Ishida, T. Nakajima, Y. Honda, O. Kitao, H. Nakai, 
 T. Vreven, K. Throssell, J. A. Montgomery, Jr., J. E. Peralta, 
 F. Ogliaro, M. J. Bearpark, J. J. Heyd, E. N. Brothers, K. N. Kudin, 
 V. N. Staroverov, T. A. Keith, R. Kobayashi, J. Normand, 
 K. Raghavachari, A. P. Rendell, J. C. Burant, S. S. Iyengar, 
 J. Tomasi, M. Cossi, J. M. Millam, M. Klene, C. Adamo, R. Cammi, 
 J. W. Ochterski, R. L. Martin, K. Morokuma, O. Farkas, 
 J. B. Foresman, and D. J. Fox, Gaussian, Inc., Wallingford CT, 2016.
 
 ******************************************
 Gaussian 16:  ES64L-G16RevA.03 25-Dec-2016
                27-May-2025 
 ******************************************
 %nproc=1
 Will use up to    1 processors via shared memory.
 ----------------------------------------------------------------------
 #p Freq external='/mlatom/software/miniconda3/bin/python /mlatom/softw
 are/mlatom_xacs/mlatom/interfaces/gaussian_interface.py model_predict_
 kwargs'
 ----------------------------------------------------------------------
 1/10=4,18=10,30=1,38=1/1,3;
 2/12=2,17=6,18=5,40=1/2;
 3/11=9,25=1,30=1,41=9900000,43=2,71=2,140=1/1;
 4/20=17,22=2,24=3,113=1,114=1/2;
 6/7=2,8=2,9=2,10=2/1;
 7/8=1,25=1,44=-1/16;
 1/10=4,18=10,30=1/3;
 99//99;
 Leave Link    1 at Tue May 27 10:46:36 2025, MaxMem=           0 cpu:               0.0 elap:               0.0
 (Enter /mlatom/software/Gaussian/g16-avx2/l101.exe)
 ------------------------------------
 3574015e-90ad-415d-90ec-45ec56aa48d6
 ------------------------------------
 Symbolic Z-matrix:
 Charge =  0 Multiplicity = 1
 C                    -2.08099   2.92747  -1.48221 
 C                    -0.73301   2.90715  -2.01606 
 C                    -0.36432   1.93104  -2.93873 
 C                    -1.32657   0.93365  -3.36274 
 C                    -2.6214    0.9526   -2.84971 
 C                    -3.00611   1.96946  -1.89069 
 C                    -2.00434   3.31256  -0.08658 
 C                    -0.60904   3.53051   0.24221 
 C                     0.17583   3.27988  -0.95002 
 C                     1.41895   2.66064  -0.84739 
 C                     0.93045   1.2874   -2.83344 
 C                    -0.62696  -0.32664  -3.51845 
 C                    -1.24882  -1.51858  -3.15476 
 C                    -2.59687  -1.49881  -2.6214 
 C                    -3.26926  -0.28803  -2.47175 
 C                    -4.05508  -0.03776  -1.27937 
 C                    -3.89238   1.35741  -0.92021 
 C                    -3.81883   1.72745   0.42071 
 C                    -2.85599   2.72458   0.84582 
 C                    -0.12072   3.15319   1.49077 
 C                    -1.00694   2.54066   2.46086 
 C                    -2.34734   2.33082   2.14504 
 C                    -2.99542   1.09019   2.52276 
 C                    -3.90502   0.71735   1.45713 
 C                    -4.06148  -0.62316   1.11205 
 C                    -4.138    -1.00827  -0.28356 
 C                    -3.43857  -2.26859  -0.4396 
 C                    -2.68318  -2.5088   -1.58512 
 C                     0.76765  -0.1088   -3.19208 
 C                     0.49441  -3.31395   0.09843 
 C                     1.3478   -2.72726  -0.83478 
 C                     2.30763  -1.72989  -0.40784 
 C                     2.37805  -1.35904   0.92989 
 C                     1.49626  -1.97163   1.90342 
 C                    -0.77697  -2.90918   2.02788 
 C                    -1.68631  -3.28158   0.96216 
 C                    -0.90025  -3.53167  -0.23025 
 C                    -1.38855  -3.15259  -1.47836 
 C                    -0.50213  -2.54021  -2.4479 
 C                     0.83912  -2.33193  -2.1338 
 C                     2.62411   1.00695   0.29465 
 C                     2.53551   0.03738   1.28692 
 C                     1.75648   0.28746   2.48196 
 C                     1.11188  -0.95395   2.86123 
 C                    -0.1835   -0.93445   3.37348 
 C                    -1.1463   -1.93142   2.94885 
 C                    -2.92996  -2.66253   0.85964 
 C                    -3.31481  -1.64554   1.81858 
 C                    -2.4408   -1.28731   2.84239 
 C                    -2.27788   0.10785   3.20145 
 C                    -0.88263   0.32602   3.52963 
 C                    -0.26056   1.5188    3.16752 
 C                     1.08722   1.49946   2.63456 
 C                     1.17372   2.50914   1.59697 
 C                     1.92594   2.26621   0.45066 
 C                     1.48577  -1.09186  -2.51214 
 C                     1.80166   1.64444  -1.80792 
 C                     0.57075  -2.92973   1.49416 
 C                     2.39254  -0.71675  -1.44561 
 C                     2.54357   0.62083  -1.10213 
 C                     5.89344   0.75933  -0.18785 
 C                     5.90985  -0.74522  -0.18068 
 C                     6.1708    1.47474   1.11478 
 H                     6.14938   2.56097   0.98638 
 H                     5.41959   1.21524   1.87214 
 H                     7.15233   1.21241   1.52739 
 C                     6.20004  -1.44524   1.12728 
 H                     6.18466  -2.5322    0.99948 
 H                     7.18458  -1.18088   1.53735 
 H                     5.45623  -1.1965    1.89853 
 C                     5.63344  -1.5062   -1.25758 
 H                     5.4071   -1.092    -2.23381 
 H                     5.65167  -2.58918  -1.18899 
 C                     5.59881   1.49094  -1.27481 
 H                     5.56489   2.576    -1.2296 
 H                     5.38308   1.04431  -2.23885 
 
 ITRead=  0  0  0  0  0  0  0  0  0  0  0  0  0  0  0  0  0  0  0  0
 ITRead=  0  0  0  0  0  0  0  0  0  0  0  0  0  0  0  0  0  0  0  0
 ITRead=  0  0  0  0  0  0  0  0  0  0  0  0  0  0  0  0  0  0  0  0
 ITRead=  0  0  0  0  0  0  0  0  0  0  0  0  0  0  0  0
 MicOpt= -1 -1 -1 -1 -1 -1 -1 -1 -1 -1 -1 -1 -1 -1 -1 -1 -1 -1 -1 -1
 MicOpt= -1 -1 -1 -1 -1 -1 -1 -1 -1 -1 -1 -1 -1 -1 -1 -1 -1 -1 -1 -1
 MicOpt= -1 -1 -1 -1 -1 -1 -1 -1 -1 -1 -1 -1 -1 -1 -1 -1 -1 -1 -1 -1
 MicOpt= -1 -1 -1 -1 -1 -1 -1 -1 -1 -1 -1 -1 -1 -1 -1 -1
 NAtoms=     76 NQM=       76 NQMF=       0 NMMI=      0 NMMIF=      0
                NMic=       0 NMicF=      0.
                    Isotopes and Nuclear Properties:
 (Nuclear quadrupole moments (NQMom) in fm**2, nuclear magnetic moments (NMagM)
  in nuclear magnetons)

  Atom         1           2           3           4           5           6           7           8           9          10
 IAtWgt=          12          12          12          12          12          12          12          12          12          12
 AtmWgt=  12.0000000  12.0000000  12.0000000  12.0000000  12.0000000  12.0000000  12.0000000  12.0000000  12.0000000  12.0000000
 NucSpn=           0           0           0           0           0           0           0           0           0           0
 AtZEff=  -0.0000000  -0.0000000  -0.0000000  -0.0000000  -0.0000000  -0.0000000  -0.0000000  -0.0000000  -0.0000000  -0.0000000
 NQMom=    0.0000000   0.0000000   0.0000000   0.0000000   0.0000000   0.0000000   0.0000000   0.0000000   0.0000000   0.0000000
 NMagM=    0.0000000   0.0000000   0.0000000   0.0000000   0.0000000   0.0000000   0.0000000   0.0000000   0.0000000   0.0000000
 AtZNuc=   6.0000000   6.0000000   6.0000000   6.0000000   6.0000000   6.0000000   6.0000000   6.0000000   6.0000000   6.0000000

  Atom        11          12          13          14          15          16          17          18          19          20
 IAtWgt=          12          12          12          12          12          12          12          12          12          12
 AtmWgt=  12.0000000  12.0000000  12.0000000  12.0000000  12.0000000  12.0000000  12.0000000  12.0000000  12.0000000  12.0000000
 NucSpn=           0           0           0           0           0           0           0           0           0           0
 AtZEff=  -0.0000000  -0.0000000  -0.0000000  -0.0000000  -0.0000000  -0.0000000  -0.0000000  -0.0000000  -0.0000000  -0.0000000
 NQMom=    0.0000000   0.0000000   0.0000000   0.0000000   0.0000000   0.0000000   0.0000000   0.0000000   0.0000000   0.0000000
 NMagM=    0.0000000   0.0000000   0.0000000   0.0000000   0.0000000   0.0000000   0.0000000   0.0000000   0.0000000   0.0000000
 AtZNuc=   6.0000000   6.0000000   6.0000000   6.0000000   6.0000000   6.0000000   6.0000000   6.0000000   6.0000000   6.0000000

  Atom        21          22          23          24          25          26          27          28          29          30
 IAtWgt=          12          12          12          12          12          12          12          12          12          12
 AtmWgt=  12.0000000  12.0000000  12.0000000  12.0000000  12.0000000  12.0000000  12.0000000  12.0000000  12.0000000  12.0000000
 NucSpn=           0           0           0           0           0           0           0           0           0           0
 AtZEff=  -0.0000000  -0.0000000  -0.0000000  -0.0000000  -0.0000000  -0.0000000  -0.0000000  -0.0000000  -0.0000000  -0.0000000
 NQMom=    0.0000000   0.0000000   0.0000000   0.0000000   0.0000000   0.0000000   0.0000000   0.0000000   0.0000000   0.0000000
 NMagM=    0.0000000   0.0000000   0.0000000   0.0000000   0.0000000   0.0000000   0.0000000   0.0000000   0.0000000   0.0000000
 AtZNuc=   6.0000000   6.0000000   6.0000000   6.0000000   6.0000000   6.0000000   6.0000000   6.0000000   6.0000000   6.0000000

  Atom        31          32          33          34          35          36          37          38          39          40
 IAtWgt=          12          12          12          12          12          12          12          12          12          12
 AtmWgt=  12.0000000  12.0000000  12.0000000  12.0000000  12.0000000  12.0000000  12.0000000  12.0000000  12.0000000  12.0000000
 NucSpn=           0           0           0           0           0           0           0           0           0           0
 AtZEff=  -0.0000000  -0.0000000  -0.0000000  -0.0000000  -0.0000000  -0.0000000  -0.0000000  -0.0000000  -0.0000000  -0.0000000
 NQMom=    0.0000000   0.0000000   0.0000000   0.0000000   0.0000000   0.0000000   0.0000000   0.0000000   0.0000000   0.0000000
 NMagM=    0.0000000   0.0000000   0.0000000   0.0000000   0.0000000   0.0000000   0.0000000   0.0000000   0.0000000   0.0000000
 AtZNuc=   6.0000000   6.0000000   6.0000000   6.0000000   6.0000000   6.0000000   6.0000000   6.0000000   6.0000000   6.0000000

  Atom        41          42          43          44          45          46          47          48          49          50
 IAtWgt=          12          12          12          12          12          12          12          12          12          12
 AtmWgt=  12.0000000  12.0000000  12.0000000  12.0000000  12.0000000  12.0000000  12.0000000  12.0000000  12.0000000  12.0000000
 NucSpn=           0           0           0           0           0           0           0           0           0           0
 AtZEff=  -0.0000000  -0.0000000  -0.0000000  -0.0000000  -0.0000000  -0.0000000  -0.0000000  -0.0000000  -0.0000000  -0.0000000
 NQMom=    0.0000000   0.0000000   0.0000000   0.0000000   0.0000000   0.0000000   0.0000000   0.0000000   0.0000000   0.0000000
 NMagM=    0.0000000   0.0000000   0.0000000   0.0000000   0.0000000   0.0000000   0.0000000   0.0000000   0.0000000   0.0000000
 AtZNuc=   6.0000000   6.0000000   6.0000000   6.0000000   6.0000000   6.0000000   6.0000000   6.0000000   6.0000000   6.0000000

  Atom        51          52          53          54          55          56          57          58          59          60
 IAtWgt=          12          12          12          12          12          12          12          12          12          12
 AtmWgt=  12.0000000  12.0000000  12.0000000  12.0000000  12.0000000  12.0000000  12.0000000  12.0000000  12.0000000  12.0000000
 NucSpn=           0           0           0           0           0           0           0           0           0           0
 AtZEff=  -0.0000000  -0.0000000  -0.0000000  -0.0000000  -0.0000000  -0.0000000  -0.0000000  -0.0000000  -0.0000000  -0.0000000
 NQMom=    0.0000000   0.0000000   0.0000000   0.0000000   0.0000000   0.0000000   0.0000000   0.0000000   0.0000000   0.0000000
 NMagM=    0.0000000   0.0000000   0.0000000   0.0000000   0.0000000   0.0000000   0.0000000   0.0000000   0.0000000   0.0000000
 AtZNuc=   6.0000000   6.0000000   6.0000000   6.0000000   6.0000000   6.0000000   6.0000000   6.0000000   6.0000000   6.0000000

  Atom        61          62          63          64          65          66          67          68          69          70
 IAtWgt=          12          12          12           1           1           1          12           1           1           1
 AtmWgt=  12.0000000  12.0000000  12.0000000   1.0078250   1.0078250   1.0078250  12.0000000   1.0078250   1.0078250   1.0078250
 NucSpn=           0           0           0           1           1           1           0           1           1           1
 AtZEff=  -0.0000000  -0.0000000  -0.0000000  -0.0000000  -0.0000000  -0.0000000  -0.0000000  -0.0000000  -0.0000000  -0.0000000
 NQMom=    0.0000000   0.0000000   0.0000000   0.0000000   0.0000000   0.0000000   0.0000000   0.0000000   0.0000000   0.0000000
 NMagM=    0.0000000   0.0000000   0.0000000   2.7928460   2.7928460   2.7928460   0.0000000   2.7928460   2.7928460   2.7928460
 AtZNuc=   6.0000000   6.0000000   6.0000000   1.0000000   1.0000000   1.0000000   6.0000000   1.0000000   1.0000000   1.0000000

  Atom        71          72          73          74          75          76
 IAtWgt=          12           1           1          12           1           1
 AtmWgt=  12.0000000   1.0078250   1.0078250  12.0000000   1.0078250   1.0078250
 NucSpn=           0           1           1           0           1           1
 AtZEff=  -0.0000000  -0.0000000  -0.0000000  -0.0000000  -0.0000000  -0.0000000
 NQMom=    0.0000000   0.0000000   0.0000000   0.0000000   0.0000000   0.0000000
 NMagM=    0.0000000   2.7928460   2.7928460   0.0000000   2.7928460   2.7928460
 AtZNuc=   6.0000000   1.0000000   1.0000000   6.0000000   1.0000000   1.0000000
 Leave Link  101 at Tue May 27 10:46:37 2025, MaxMem=   104857600 cpu:               0.2 elap:               0.3
 (Enter /mlatom/software/Gaussian/g16-avx2/l103.exe)

 GradGradGradGradGradGradGradGradGradGradGradGradGradGradGradGradGradGrad
 Berny optimization.
 Initialization pass.
 Trust Radius=3.00D-01 FncErr=1.00D-07 GrdErr=1.00D-07 EigMax=2.50D+02 EigMin=1.00D-04
 Number of steps in this run=      2 maximum allowed number of steps=      2.
 GradGradGradGradGradGradGradGradGradGradGradGradGradGradGradGradGradGrad

 Leave Link  103 at Tue May 27 10:46:37 2025, MaxMem=   104857600 cpu:               0.0 elap:               0.1
 (Enter /mlatom/software/Gaussian/g16-avx2/l202.exe)
 Stoichiometry    C66H10
 Framework group  C1[X(C66H10)]
 Deg. of freedom   222
 Full point group                 C1      NOp   1
 Largest Abelian subgroup         C1      NOp   1
 Largest concise Abelian subgroup C1      NOp   1
                         Standard orientation:                         
 ---------------------------------------------------------------------
 Center     Atomic      Atomic             Coordinates (Angstroms)
 Number     Number       Type             X           Y           Z
 ---------------------------------------------------------------------
      1          6           0        2.080986   -2.927469   -1.482212
      2          6           0        0.733006   -2.907150   -2.016060
      3          6           0        0.364324   -1.931038   -2.938732
      4          6           0        1.326575   -0.933648   -3.362744
      5          6           0        2.621402   -0.952604   -2.849706
      6          6           0        3.006113   -1.969465   -1.890693
      7          6           0        2.004336   -3.312562   -0.086578
      8          6           0        0.609036   -3.530514    0.242212
      9          6           0       -0.175833   -3.279877   -0.950021
     10          6           0       -1.418954   -2.660643   -0.847394
     11          6           0       -0.930454   -1.287399   -2.833436
     12          6           0        0.626955    0.326642   -3.518454
     13          6           0        1.248822    1.518579   -3.154757
     14          6           0        2.596873    1.498811   -2.621404
     15          6           0        3.269255    0.288025   -2.471749
     16          6           0        4.055076    0.037758   -1.279368
     17          6           0        3.892381   -1.357412   -0.920209
     18          6           0        3.818829   -1.727447    0.420708
     19          6           0        2.855992   -2.724580    0.845823
     20          6           0        0.120718   -3.153190    1.490774
     21          6           0        1.006936   -2.540657    2.460858
     22          6           0        2.347344   -2.330820    2.145044
     23          6           0        2.995423   -1.090188    2.522758
     24          6           0        3.905019   -0.717347    1.457126
     25          6           0        4.061477    0.623160    1.112055
     26          6           0        4.137998    1.008269   -0.283558
     27          6           0        3.438569    2.268586   -0.439601
     28          6           0        2.683178    2.508796   -1.585121
     29          6           0       -0.767649    0.108801   -3.192080
     30          6           0       -0.494412    3.313952    0.098432
     31          6           0       -1.347803    2.727257   -0.834777
     32          6           0       -2.307631    1.729885   -0.407842
     33          6           0       -2.378049    1.359035    0.929893
     34          6           0       -1.496257    1.971634    1.903416
     35          6           0        0.776970    2.909181    2.027883
     36          6           0        1.686306    3.281576    0.962163
     37          6           0        0.900245    3.531670   -0.230254
     38          6           0        1.388546    3.152590   -1.478357
     39          6           0        0.502132    2.540210   -2.447900
     40          6           0       -0.839124    2.331932   -2.133801
     41          6           0       -2.624108   -1.006951    0.294651
     42          6           0       -2.535511   -0.037378    1.286919
     43          6           0       -1.756480   -0.287459    2.481964
     44          6           0       -1.111877    0.953950    2.861228
     45          6           0        0.183502    0.934448    3.373480
     46          6           0        1.146304    1.931425    2.948851
     47          6           0        2.929963    2.662533    0.859640
     48          6           0        3.314809    1.645539    1.818577
     49          6           0        2.440804    1.287305    2.842394
     50          6           0        2.277880   -0.107850    3.201447
     51          6           0        0.882627   -0.326015    3.529635
     52          6           0        0.260558   -1.518797    3.167524
     53          6           0       -1.087216   -1.499455    2.634559
     54          6           0       -1.173717   -2.509144    1.596975
     55          6           0       -1.925940   -2.266207    0.450658
     56          6           0       -1.485770    1.091861   -2.512143
     57          6           0       -1.801657   -1.644445   -1.807921
     58          6           0       -0.570748    2.929731    1.494161
     59          6           0       -2.392544    0.716753   -1.445612
     60          6           0       -2.543567   -0.620825   -1.102132
     61          6           0       -5.893439   -0.759328   -0.187849
     62          6           0       -5.909849    0.745223   -0.180678
     63          6           0       -6.170802   -1.474738    1.114780
     64          1           0       -6.149377   -2.560974    0.986383
     65          1           0       -5.419586   -1.215243    1.872139
     66          1           0       -7.152330   -1.212406    1.527392
     67          6           0       -6.200043    1.445244    1.127281
     68          1           0       -6.184662    2.532199    0.999475
     69          1           0       -7.184581    1.180881    1.537354
     70          1           0       -5.456231    1.196505    1.898532
     71          6           0       -5.633441    1.506204   -1.257584
     72          1           0       -5.407102    1.092003   -2.233814
     73          1           0       -5.651675    2.589179   -1.188991
     74          6           0       -5.598810   -1.490939   -1.274812
     75          1           0       -5.564894   -2.576004   -1.229603
     76          1           0       -5.383077   -1.044307   -2.238846
 ---------------------------------------------------------------------
 Rotational constants (GHZ):           0.0805779           0.0537942           0.0534667
 Leave Link  202 at Tue May 27 10:46:37 2025, MaxMem=   104857600 cpu:               0.0 elap:               0.1
 (Enter /mlatom/software/Gaussian/g16-avx2/l301.exe)
 Standard basis: STO-3G (5D, 7F)
 Ernie: Thresh=  0.10000D-02 Tol=  0.10000D-05 Strict=F.
 There are   340 symmetry adapted cartesian basis functions of A   symmetry.
 There are   340 symmetry adapted basis functions of A   symmetry.
   340 basis functions,  1020 primitive gaussians,   340 cartesian basis functions
   203 alpha electrons      203 beta electrons
       nuclear repulsion energy      9840.6106631727 Hartrees.
 IExCor=    0 DFT=F Ex=HF Corr=None ExCW=0 ScaHFX=  1.000000
 ScaDFX=  1.000000  1.000000  1.000000  1.000000 ScalE2=  1.000000  1.000000
 IRadAn=      5 IRanWt=     -1 IRanGd=            0 ICorTp=0 IEmpDi=  4
 NAtoms=   76 NActive=   76 NUniq=   76 SFac= 1.00D+00 NAtFMM=   60 NAOKFM=T Big=T
 Integral buffers will be    131072 words long.
 Raffenetti 1 integral format.
 Two-electron integral symmetry is turned on.
 Leave Link  301 at Tue May 27 10:46:37 2025, MaxMem=   104857600 cpu:               0.1 elap:               0.1
 (Enter /mlatom/software/Gaussian/g16-avx2/l402.exe)
 External calculation of energy, first and second derivatives.
 Running external command "/mlatom/software/miniconda3/bin/python /mlatom/software/mlatom_xacs/mlatom/interfaces/gaussian_interface.py model_predict_kwargs R"
         input file       "/mlatom/home/huangyh/projects/delta_learning/paper/revision1/Starting_from_ub3lyp_d4/c60/AL/r/Gau-144961.EIn"
         output file      "/mlatom/home/huangyh/projects/delta_learning/paper/revision1/Starting_from_ub3lyp_d4/c60/AL/r/Gau-144961.EOu"
         message file     "/mlatom/home/huangyh/projects/delta_learning/paper/revision1/Starting_from_ub3lyp_d4/c60/AL/r/Gau-144961.EMs"
         fchk file        "/mlatom/home/huangyh/projects/delta_learning/paper/revision1/Starting_from_ub3lyp_d4/c60/AL/r/Gau-144961.EFC"
         mat. el file     "/mlatom/home/huangyh/projects/delta_learning/paper/revision1/Starting_from_ub3lyp_d4/c60/AL/r/Gau-144961.EUF"
model loaded from /mlatom/home/huangyh/projects/delta_learning/paper/revision1/Starting_from_ub3lyp_d4/c60/AL/AL_main_model_C60_butadiene.npz
 Recovered energy= -2521.17397661     dipole=      0.000000000000      0.000000000000      0.000000000000
 Energy=    -2521.17398     NIter=   0.
 Dipole moment=       0.000000       0.000000       0.000000
 Leave Link  402 at Tue May 27 10:46:45 2025, MaxMem=   104857600 cpu:               0.1 elap:               8.1
 (Enter /mlatom/software/Gaussian/g16-avx2/l601.exe)
 Leave Link  601 at Tue May 27 10:46:46 2025, MaxMem=   104857600 cpu:               0.0 elap:               0.1
 (Enter /mlatom/software/Gaussian/g16-avx2/l716.exe)
 Dipole        = 0.00000000D+00 0.00000000D+00 0.00000000D+00
 Full mass-weighted force constant matrix:
 Low frequencies ---   -0.2186   -0.1556   -0.1175    0.0577    0.1398    0.1632
 Low frequencies ---   24.1702   29.1919   43.4830
 Diagonal vibrational polarizability:
        0.0000000       0.0000000       0.0000000
 Harmonic frequencies (cm**-1), IR intensities (KM/Mole), Raman scattering
 activities (A**4/AMU), depolarization ratios for plane and unpolarized
 incident light, reduced masses (AMU), force constants (mDyne/A),
 and normal coordinates:
                      1                      2                      3
                      A                      A                      A
 Frequencies --     24.1701                29.1919                43.4830
 Red. masses --      4.6537                 4.4175                 5.9284
 Frc consts  --      0.0016                 0.0022                 0.0066
 IR Inten    --      0.0000                 0.0000                 0.0000
  Atom  AN      X      Y      Z        X      Y      Z        X      Y      Z
     1   6     0.04   0.01  -0.01    -0.02   0.00  -0.01     0.04  -0.00   0.01
     2   6     0.04  -0.01  -0.01    -0.01   0.02  -0.02     0.05  -0.01  -0.02
     3   6     0.03  -0.01  -0.01     0.00   0.02  -0.02     0.06  -0.01  -0.02
     4   6     0.02   0.00  -0.00     0.01   0.02  -0.01     0.06  -0.01  -0.01
     5   6     0.02   0.02  -0.00     0.01   0.01   0.00     0.05  -0.00   0.01
     6   6     0.03   0.02  -0.01    -0.01  -0.00  -0.00     0.04   0.00   0.02
     7   6     0.05   0.00  -0.01    -0.03  -0.00  -0.01     0.02   0.00   0.01
     8   6     0.05  -0.02  -0.01    -0.03   0.01  -0.02     0.01  -0.00  -0.02
     9   6     0.05  -0.02  -0.01    -0.02   0.02  -0.03     0.03  -0.01  -0.03
    10   6     0.04  -0.04  -0.01    -0.02   0.03  -0.03     0.02  -0.01  -0.05
    11   6     0.02  -0.03  -0.00     0.01   0.04  -0.02     0.05  -0.02  -0.05
    12   6    -0.00  -0.01   0.00     0.02   0.03  -0.01     0.06  -0.01  -0.02
    13   6    -0.02   0.00   0.00     0.03   0.02   0.00     0.05  -0.01  -0.02
    14   6    -0.02   0.02   0.00     0.03   0.01   0.01     0.04  -0.00   0.01
    15   6    -0.00   0.03   0.00     0.02  -0.00   0.01     0.04  -0.00   0.02
    16   6     0.00   0.03   0.00     0.01  -0.01   0.01     0.02   0.01   0.04
    17   6     0.02   0.03  -0.00    -0.01  -0.01   0.01     0.02   0.01   0.04
    18   6     0.03   0.03  -0.00    -0.02  -0.02   0.00     0.00   0.01   0.04
    19   6     0.04   0.01  -0.01    -0.03  -0.01  -0.01    -0.00   0.01   0.02
    20   6     0.04  -0.03  -0.01    -0.04   0.01  -0.03    -0.01  -0.00  -0.03
    21   6     0.04  -0.02  -0.01    -0.04  -0.00  -0.02    -0.03   0.00  -0.01
    22   6     0.03  -0.00  -0.01    -0.04  -0.01  -0.01    -0.03   0.01   0.01
    23   6     0.02   0.01  -0.00    -0.03  -0.02   0.00    -0.04   0.01   0.02
    24   6     0.01   0.02  -0.00    -0.02  -0.02   0.01    -0.02   0.01   0.04
    25   6    -0.01   0.03   0.00    -0.00  -0.02   0.02    -0.02   0.01   0.04
    26   6    -0.01   0.03   0.00     0.01  -0.02   0.02     0.00   0.01   0.04
    27   6    -0.03   0.02   0.01     0.02  -0.01   0.02    -0.00   0.00   0.02
    28   6    -0.03   0.02   0.01     0.03   0.00   0.01     0.02  -0.00   0.01
    29   6     0.00  -0.03  -0.00     0.02   0.04  -0.02     0.05  -0.02  -0.05
    30   6    -0.04  -0.03   0.01     0.02   0.02  -0.00    -0.01  -0.01  -0.05
    31   6    -0.03  -0.04   0.01     0.02   0.03  -0.01     0.01  -0.02  -0.06
    32   6    -0.02  -0.06   0.00     0.01   0.04  -0.02     0.00  -0.02  -0.08
    33   6    -0.02  -0.06   0.00     0.00   0.03  -0.02    -0.02  -0.01  -0.08
    34   6    -0.03  -0.05   0.00     0.00   0.02  -0.01    -0.04  -0.01  -0.06
    35   6    -0.04  -0.02   0.01     0.01   0.00   0.00    -0.05   0.00  -0.03
    36   6    -0.04  -0.01   0.01     0.02  -0.00   0.01    -0.03   0.00  -0.01
    37   6    -0.05  -0.01   0.01     0.03   0.01   0.01    -0.01  -0.00  -0.03
    38   6    -0.04  -0.00   0.01     0.03   0.01   0.01     0.01  -0.01  -0.02
    39   6    -0.03  -0.01   0.01     0.04   0.02   0.00     0.03  -0.01  -0.03
    40   6    -0.03  -0.03   0.01     0.03   0.03  -0.01     0.03  -0.02  -0.05
    41   6     0.01  -0.06  -0.00    -0.00   0.04  -0.03    -0.00  -0.02  -0.08
    42   6    -0.00  -0.06  -0.00    -0.01   0.03  -0.03    -0.01  -0.02  -0.08
    43   6     0.00  -0.06  -0.00    -0.02   0.02  -0.02    -0.04  -0.01  -0.06
    44   6    -0.01  -0.05   0.00    -0.01   0.02  -0.02    -0.05  -0.01  -0.05
    45   6    -0.01  -0.03   0.00    -0.02   0.00  -0.01    -0.06   0.00  -0.03
    46   6    -0.03  -0.02   0.01    -0.00  -0.01   0.00    -0.06   0.00  -0.02
    47   6    -0.04   0.01   0.01     0.01  -0.01   0.02    -0.02   0.01   0.01
    48   6    -0.02   0.01   0.01     0.00  -0.02   0.02    -0.04   0.01   0.02
    49   6    -0.02  -0.00   0.00    -0.01  -0.02   0.01    -0.05   0.01   0.01
    50   6     0.00  -0.00  -0.00    -0.02  -0.02   0.00    -0.05   0.01   0.01
    51   6     0.00  -0.03  -0.00    -0.03  -0.01  -0.01    -0.06   0.00  -0.02
    52   6     0.02  -0.03  -0.01    -0.04   0.00  -0.02    -0.05  -0.00  -0.03
    53   6     0.02  -0.05  -0.01    -0.03   0.02  -0.03    -0.04  -0.01  -0.05
    54   6     0.04  -0.05  -0.01    -0.03   0.02  -0.03    -0.02  -0.01  -0.05
    55   6     0.03  -0.06  -0.01    -0.02   0.03  -0.03     0.00  -0.01  -0.06
    56   6    -0.01  -0.04   0.00     0.02   0.04  -0.02     0.04  -0.02  -0.06
    57   6     0.02  -0.05  -0.01    -0.00   0.04  -0.03     0.03  -0.02  -0.06
    58   6    -0.04  -0.04   0.01     0.01   0.02  -0.01    -0.04  -0.01  -0.05
    59   6    -0.01  -0.05  -0.00     0.01   0.04  -0.03     0.02  -0.02  -0.08
    60   6     0.01  -0.06  -0.00     0.00   0.04  -0.03     0.02  -0.02  -0.08
    61   6    -0.04   0.13   0.06     0.04  -0.10   0.14    -0.02   0.05   0.14
    62   6     0.01   0.13  -0.05    -0.01  -0.10  -0.00     0.00   0.04   0.22
    63   6    -0.06   0.24   0.12     0.07   0.02   0.22     0.00  -0.02   0.11
    64   1    -0.12   0.23   0.19     0.11   0.01   0.33    -0.02  -0.01   0.05
    65   1    -0.04   0.25   0.09     0.07   0.13   0.19     0.04  -0.08   0.10
    66   1    -0.04   0.31   0.11     0.06   0.03   0.20     0.02  -0.02   0.16
    67   6     0.03   0.24  -0.10    -0.02   0.02  -0.07     0.04  -0.02   0.27
    68   1     0.06   0.23  -0.19    -0.05   0.01  -0.17     0.05  -0.01   0.33
    69   1     0.02   0.29  -0.08    -0.01   0.04  -0.03     0.05  -0.03   0.28
    70   1     0.02   0.28  -0.08    -0.00   0.11  -0.05     0.06  -0.07   0.24
    71   6     0.03   0.04  -0.11    -0.05  -0.19  -0.08     0.00   0.10   0.26
    72   1     0.02  -0.04  -0.08    -0.05  -0.28  -0.04    -0.04   0.15   0.23
    73   1     0.05   0.05  -0.19    -0.08  -0.19  -0.19     0.03   0.09   0.32
    74   6    -0.06   0.04   0.12     0.06  -0.20   0.21    -0.07   0.10   0.10
    75   1    -0.11   0.04   0.20     0.11  -0.19   0.32    -0.10   0.09   0.03
    76   1    -0.03  -0.04   0.09     0.02  -0.28   0.17    -0.08   0.15   0.11
                      4                      5                      6
                      A                      A                      A
 Frequencies --     99.0084               124.0168               155.3289
 Red. masses --      3.7328                 3.0136                 3.8090
 Frc consts  --      0.0216                 0.0273                 0.0541
 IR Inten    --      0.0000                 0.0000                 0.0000
  Atom  AN      X      Y      Z        X      Y      Z        X      Y      Z
     1   6    -0.01  -0.01   0.00    -0.01   0.00   0.00    -0.02  -0.00  -0.01
     2   6    -0.01  -0.01  -0.00    -0.01   0.00   0.00    -0.01  -0.01  -0.01
     3   6    -0.01  -0.01  -0.00    -0.01   0.00   0.00    -0.01  -0.00  -0.01
     4   6    -0.01  -0.01  -0.00    -0.01   0.00   0.00    -0.01  -0.00  -0.01
     5   6    -0.02  -0.00   0.00    -0.01   0.00   0.00    -0.02   0.00  -0.01
     6   6    -0.01  -0.00   0.00    -0.01   0.00   0.00    -0.02   0.00  -0.01
     7   6    -0.01  -0.00   0.00    -0.01   0.00   0.00    -0.02  -0.00  -0.00
     8   6    -0.01  -0.01   0.00    -0.01   0.00   0.00    -0.01  -0.01  -0.00
     9   6    -0.01  -0.01  -0.00    -0.01   0.00   0.00    -0.01  -0.01  -0.00
    10   6    -0.01  -0.01  -0.00    -0.01   0.00  -0.00    -0.01  -0.01   0.00
    11   6    -0.01  -0.01  -0.00    -0.01   0.00  -0.00    -0.01  -0.00  -0.01
    12   6    -0.02  -0.01  -0.00    -0.01   0.01   0.00    -0.01   0.00  -0.01
    13   6    -0.02  -0.01  -0.00    -0.01   0.01   0.00    -0.02   0.00  -0.01
    14   6    -0.02  -0.00   0.00    -0.01   0.00   0.00    -0.02   0.00  -0.01
    15   6    -0.02  -0.00   0.00    -0.01   0.00   0.00    -0.02   0.00  -0.01
    16   6    -0.02   0.00   0.00    -0.01   0.00   0.00    -0.03   0.00  -0.01
    17   6    -0.02   0.00   0.00    -0.01   0.00   0.00    -0.03   0.00  -0.01
    18   6    -0.02   0.00   0.00    -0.01   0.00   0.00    -0.03   0.00  -0.01
    19   6    -0.01  -0.00   0.00    -0.01   0.00   0.00    -0.02   0.00  -0.01
    20   6    -0.01  -0.01   0.00    -0.01   0.00   0.00    -0.02  -0.01   0.00
    21   6    -0.01  -0.01   0.00    -0.01   0.00   0.00    -0.02  -0.00   0.00
    22   6    -0.01  -0.00   0.00    -0.01   0.00   0.00    -0.02  -0.00  -0.00
    23   6    -0.02  -0.00   0.00    -0.01   0.00   0.00    -0.02   0.00  -0.01
    24   6    -0.02   0.00   0.00    -0.01   0.00   0.00    -0.03   0.00  -0.01
    25   6    -0.02   0.00   0.00    -0.01   0.00   0.00    -0.03   0.00  -0.01
    26   6    -0.02   0.00   0.00    -0.01   0.00   0.00    -0.03   0.00  -0.01
    27   6    -0.02  -0.00   0.00    -0.01   0.00   0.00    -0.02   0.00  -0.01
    28   6    -0.02  -0.00   0.00    -0.01   0.00   0.00    -0.02   0.01  -0.01
    29   6    -0.02  -0.01  -0.00    -0.01   0.00   0.00    -0.01  -0.00  -0.01
    30   6    -0.02  -0.00   0.00    -0.00   0.01   0.00    -0.01   0.01  -0.00
    31   6    -0.02  -0.01  -0.00    -0.00   0.00   0.00    -0.00   0.00  -0.00
    32   6    -0.02  -0.01   0.00     0.00   0.00   0.00     0.01  -0.01   0.00
    33   6    -0.01  -0.01   0.00     0.00   0.00  -0.00     0.00  -0.00   0.00
    34   6    -0.02  -0.00   0.01     0.00   0.00   0.00    -0.01   0.00   0.01
    35   6    -0.02  -0.00   0.00    -0.00   0.01   0.00    -0.02   0.01   0.00
    36   6    -0.02  -0.00   0.00    -0.00   0.01   0.00    -0.02   0.01  -0.00
    37   6    -0.02  -0.00   0.00    -0.00   0.01   0.00    -0.02   0.01  -0.00
    38   6    -0.02  -0.00  -0.00    -0.00   0.01   0.00    -0.02   0.01  -0.01
    39   6    -0.02  -0.01  -0.00    -0.01   0.01   0.00    -0.01   0.01  -0.01
    40   6    -0.02  -0.01  -0.00    -0.00   0.01   0.00    -0.01   0.01  -0.01
    41   6     0.01  -0.00  -0.00    -0.01  -0.00  -0.00     0.02  -0.00   0.00
    42   6    -0.00  -0.01  -0.00     0.00   0.00  -0.00     0.01  -0.00   0.00
    43   6    -0.01  -0.01   0.01    -0.00   0.00   0.00    -0.01  -0.00   0.01
    44   6    -0.02  -0.00   0.01    -0.00   0.00   0.00    -0.01   0.00   0.01
    45   6    -0.02  -0.00   0.01    -0.00   0.00   0.00    -0.02   0.00   0.01
    46   6    -0.02  -0.00   0.00    -0.00   0.00   0.00    -0.02   0.00   0.00
    47   6    -0.02  -0.00   0.00    -0.00   0.00   0.00    -0.02   0.00  -0.01
    48   6    -0.02   0.00   0.00    -0.01   0.00   0.00    -0.02   0.00  -0.01
    49   6    -0.02  -0.00   0.00    -0.01   0.00   0.00    -0.02   0.00  -0.00
    50   6    -0.02  -0.00   0.00    -0.01   0.00   0.00    -0.02   0.00  -0.00
    51   6    -0.02  -0.00   0.00    -0.01   0.00   0.00    -0.02  -0.00   0.00
    52   6    -0.01  -0.01   0.00    -0.01   0.00   0.00    -0.02  -0.00   0.00
    53   6    -0.01  -0.01   0.00    -0.01   0.00   0.00    -0.02  -0.01   0.01
    54   6    -0.01  -0.01   0.00    -0.01   0.00   0.00    -0.02  -0.01   0.01
    55   6    -0.00  -0.01   0.00    -0.01   0.00   0.00    -0.01  -0.01   0.00
    56   6    -0.02  -0.01  -0.00    -0.01   0.00   0.00     0.00  -0.00  -0.00
    57   6    -0.01  -0.01  -0.00    -0.01   0.00  -0.00     0.01  -0.00   0.00
    58   6    -0.02  -0.00   0.00    -0.00   0.01   0.00    -0.02   0.01   0.00
    59   6    -0.01  -0.01   0.00    -0.00   0.00  -0.00     0.03  -0.01   0.01
    60   6    -0.00  -0.01   0.00    -0.01   0.00  -0.00     0.02  -0.00   0.01
    61   6     0.19   0.05  -0.01    -0.02  -0.03  -0.02     0.12  -0.00   0.02
    62   6     0.07   0.04  -0.01     0.11  -0.03  -0.02     0.14  -0.00   0.02
    63   6     0.38   0.03   0.02    -0.01  -0.01  -0.00    -0.15   0.01  -0.03
    64   1     0.58   0.03   0.05    -0.06  -0.01   0.00    -0.20   0.00  -0.03
    65   1     0.36   0.19  -0.02     0.03  -0.04  -0.03    -0.27  -0.05   0.10
    66   1     0.36  -0.14   0.06     0.02   0.04   0.03    -0.21   0.07  -0.21
    67   6     0.07   0.02  -0.00     0.36  -0.01   0.03     0.08  -0.00   0.01
    68   1     0.04   0.02   0.02     0.59  -0.01   0.06     0.15  -0.00   0.03
    69   1     0.08  -0.01   0.01     0.33   0.19   0.10     0.03   0.05  -0.07
    70   1     0.08   0.03  -0.01     0.35  -0.20  -0.03     0.00  -0.06   0.06
    71   6    -0.02   0.07  -0.02     0.04  -0.05  -0.05     0.24  -0.00   0.05
    72   1    -0.02   0.08  -0.03    -0.11  -0.07  -0.08     0.29  -0.00   0.06
    73   1    -0.08   0.07  -0.02     0.13  -0.05  -0.04     0.25  -0.00   0.06
    74   6     0.13   0.06  -0.04    -0.15  -0.06  -0.04     0.32  -0.01   0.08
    75   1     0.21   0.07  -0.04    -0.23  -0.06  -0.04     0.33  -0.01   0.09
    76   1     0.01   0.07  -0.07    -0.16  -0.07  -0.05     0.45  -0.01   0.10
                      7                      8                      9
                      A                      A                      A
 Frequencies --    196.4022               206.3255               257.0449
 Red. masses --      3.2860                 1.0528                11.9037
 Frc consts  --      0.0747                 0.0264                 0.4634
 IR Inten    --      0.0000                 0.0000                 0.0000
  Atom  AN      X      Y      Z        X      Y      Z        X      Y      Z
     1   6    -0.01   0.00  -0.00     0.00   0.00  -0.00    -0.03  -0.10  -0.02
     2   6    -0.01   0.00  -0.00     0.00   0.00   0.00    -0.05  -0.15  -0.06
     3   6    -0.01   0.00  -0.00     0.00   0.00   0.00    -0.07  -0.11  -0.02
     4   6    -0.01   0.00  -0.01     0.00   0.00   0.00    -0.07  -0.06   0.10
     5   6    -0.01   0.00  -0.00     0.00   0.00  -0.00    -0.09  -0.03   0.12
     6   6    -0.01   0.00  -0.00     0.00   0.00  -0.00    -0.05  -0.05   0.05
     7   6    -0.01   0.00  -0.00     0.00   0.00  -0.00    -0.01  -0.09  -0.03
     8   6    -0.01   0.00  -0.00     0.00   0.00  -0.00    -0.02  -0.13  -0.06
     9   6    -0.01  -0.00  -0.00     0.00   0.00   0.00    -0.06  -0.17  -0.07
    10   6    -0.01  -0.01  -0.00     0.00   0.00   0.00    -0.07  -0.14  -0.09
    11   6    -0.01  -0.00  -0.00     0.00   0.00   0.00    -0.08  -0.10  -0.05
    12   6    -0.00   0.00  -0.01     0.00   0.00   0.00    -0.05  -0.06   0.14
    13   6    -0.00   0.01  -0.00     0.00  -0.00   0.00    -0.06  -0.06   0.18
    14   6    -0.00   0.01  -0.00     0.00   0.00  -0.00    -0.08  -0.03   0.17
    15   6    -0.01   0.00  -0.00     0.00   0.00  -0.00    -0.11  -0.03   0.15
    16   6    -0.01   0.00  -0.00     0.01   0.00  -0.00    -0.08  -0.00   0.10
    17   6    -0.01   0.01  -0.00     0.01   0.00  -0.00    -0.04  -0.02   0.04
    18   6    -0.01   0.01  -0.00     0.00   0.00  -0.00     0.00  -0.01   0.02
    19   6    -0.01   0.01  -0.00     0.00   0.00  -0.00    -0.01  -0.03  -0.03
    20   6    -0.01   0.00   0.00     0.00   0.00  -0.00     0.01  -0.05  -0.08
    21   6    -0.01   0.00   0.00     0.00   0.00  -0.00     0.02   0.01  -0.11
    22   6    -0.01   0.00  -0.00     0.00   0.00  -0.00     0.01   0.01  -0.05
    23   6    -0.01   0.00  -0.00     0.00   0.00  -0.00     0.02   0.03  -0.03
    24   6    -0.01   0.00  -0.00     0.00   0.00  -0.00     0.02   0.03   0.00
    25   6    -0.01   0.00  -0.00     0.00   0.00  -0.00     0.04   0.06   0.06
    26   6    -0.01   0.00  -0.00     0.01   0.00  -0.00    -0.02   0.04   0.07
    27   6    -0.00   0.01  -0.00     0.00   0.00  -0.00     0.02   0.07   0.09
    28   6     0.00   0.01  -0.00     0.00   0.00  -0.00    -0.03   0.02   0.11
    29   6    -0.00   0.00  -0.00     0.00  -0.00   0.00    -0.05  -0.07   0.05
    30   6     0.01   0.01   0.00     0.00  -0.00  -0.00     0.01   0.09   0.03
    31   6     0.02  -0.00   0.00     0.00  -0.00   0.00     0.00   0.03   0.03
    32   6     0.03  -0.01   0.00    -0.00  -0.00   0.00    -0.00   0.01  -0.02
    33   6     0.01  -0.00   0.00    -0.00  -0.00   0.00     0.04   0.02  -0.04
    34   6     0.00   0.00   0.00    -0.00  -0.00   0.00     0.05   0.05  -0.05
    35   6    -0.00   0.01   0.00     0.00  -0.00  -0.00     0.05   0.15   0.06
    36   6     0.00   0.01   0.00     0.00  -0.00  -0.00     0.06   0.17   0.07
    37   6     0.00   0.01   0.00     0.00  -0.00  -0.00     0.02   0.13   0.06
    38   6     0.00   0.01  -0.00     0.00  -0.00   0.00    -0.01   0.05   0.08
    39   6     0.00   0.01  -0.00     0.00  -0.00   0.00    -0.02  -0.01   0.11
    40   6     0.01   0.00   0.00     0.00  -0.00   0.00    -0.01  -0.01   0.05
    41   6    -0.01  -0.01   0.00    -0.01  -0.00   0.00     0.02  -0.03  -0.07
    42   6     0.00  -0.00   0.00    -0.00   0.00   0.00     0.09   0.00  -0.10
    43   6    -0.00   0.00   0.00    -0.00  -0.00   0.00     0.11   0.03  -0.15
    44   6    -0.00   0.00   0.01    -0.00  -0.00  -0.00     0.09   0.03  -0.12
    45   6    -0.00   0.00   0.00    -0.00  -0.00  -0.00     0.07   0.06  -0.10
    46   6    -0.00   0.00   0.00     0.00  -0.00  -0.00     0.07   0.11   0.02
    47   6    -0.00   0.01   0.00     0.00  -0.00  -0.00     0.07   0.14   0.09
    48   6    -0.01   0.00  -0.00     0.00  -0.00  -0.00     0.10   0.12   0.08
    49   6    -0.00   0.00   0.00     0.00  -0.00  -0.00     0.08   0.10   0.05
    50   6    -0.01   0.00  -0.00     0.00   0.00  -0.00     0.05   0.07  -0.05
    51   6    -0.01   0.00   0.00     0.00   0.00  -0.00     0.05   0.06  -0.15
    52   6    -0.01   0.00   0.00    -0.00   0.00  -0.00     0.06   0.06  -0.18
    53   6    -0.01   0.00   0.00    -0.00  -0.00   0.00     0.08   0.03  -0.17
    54   6    -0.01  -0.00   0.00    -0.00  -0.00   0.00     0.03  -0.02  -0.11
    55   6    -0.01  -0.01   0.00    -0.00  -0.00   0.00    -0.02  -0.07  -0.08
    56   6     0.01  -0.00   0.01     0.00  -0.00   0.00    -0.02  -0.03   0.03
    57   6    -0.01  -0.01  -0.00     0.00   0.00   0.00    -0.09  -0.12  -0.08
    58   6     0.00   0.00   0.00     0.00  -0.00  -0.00     0.03   0.10   0.02
    59   6     0.02  -0.01   0.01    -0.00  -0.00   0.00    -0.02  -0.03  -0.01
    60   6     0.00  -0.01   0.00    -0.00  -0.00   0.00    -0.03  -0.05  -0.06
    61   6    -0.01  -0.02   0.01    -0.02   0.00  -0.00     0.00   0.00  -0.00
    62   6     0.09  -0.02   0.00    -0.01  -0.00  -0.01    -0.00   0.00  -0.00
    63   6     0.10  -0.01   0.04    -0.00   0.03   0.01    -0.01   0.00  -0.00
    64   1     0.01  -0.01   0.02     0.42   0.02   0.12     0.02   0.00   0.01
    65   1     0.22  -0.06  -0.06    -0.25   0.37   0.13    -0.04   0.03   0.01
    66   1     0.17   0.05   0.17    -0.18  -0.28  -0.21    -0.03  -0.02  -0.03
    67   6    -0.12  -0.01  -0.05    -0.02  -0.02   0.00    -0.01  -0.00   0.00
    68   1    -0.18  -0.01  -0.07     0.33  -0.02   0.11     0.00  -0.00   0.01
    69   1    -0.16  -0.07  -0.18    -0.18   0.24  -0.20    -0.02   0.01  -0.02
    70   1    -0.20   0.07   0.05    -0.24  -0.33   0.11    -0.03  -0.02   0.01
    71   6     0.34  -0.03   0.06     0.01   0.01   0.01    -0.00   0.00   0.00
    72   1     0.45  -0.03   0.08     0.02   0.01   0.01     0.01   0.00   0.00
    73   1     0.39  -0.03   0.06     0.05   0.01   0.03    -0.00   0.00   0.00
    74   6    -0.20  -0.04  -0.03    -0.02  -0.01   0.00     0.02   0.00   0.00
    75   1    -0.30  -0.04  -0.05     0.01  -0.01   0.02     0.03   0.00   0.01
    76   1    -0.25  -0.04  -0.05    -0.03  -0.02  -0.00     0.02   0.00   0.01
                     10                     11                     12
                      A                      A                      A
 Frequencies --    257.2345               257.7469               258.4430
 Red. masses --     11.8226                11.7982                11.3082
 Frc consts  --      0.4609                 0.4618                 0.4450
 IR Inten    --      0.0000                 0.0000                 0.0000
  Atom  AN      X      Y      Z        X      Y      Z        X      Y      Z
     1   6    -0.03   0.03   0.12    -0.07   0.08  -0.02    -0.10   0.13   0.06
     2   6    -0.02   0.08   0.12    -0.05   0.04  -0.07    -0.08   0.03   0.05
     3   6    -0.03   0.09   0.12    -0.07  -0.02  -0.14    -0.03   0.03   0.04
     4   6    -0.06   0.09   0.11    -0.06  -0.01  -0.13    -0.02   0.04   0.04
     5   6    -0.10   0.07   0.14    -0.08   0.01  -0.04    -0.02   0.09   0.04
     6   6    -0.08   0.06   0.12    -0.08   0.06  -0.00    -0.10   0.13   0.07
     7   6     0.02  -0.07   0.10    -0.05   0.15  -0.00    -0.12   0.10   0.03
     8   6     0.02  -0.10   0.08    -0.02   0.13  -0.03    -0.10  -0.02   0.03
     9   6     0.01   0.00   0.08    -0.02   0.06  -0.05    -0.10  -0.05   0.02
    10   6     0.02   0.02   0.02    -0.02   0.03  -0.08    -0.13  -0.11   0.01
    11   6    -0.03   0.07   0.02    -0.10  -0.03  -0.18    -0.04  -0.02   0.02
    12   6    -0.06   0.09  -0.00    -0.07  -0.02  -0.17     0.01   0.03   0.02
    13   6    -0.06   0.10  -0.05    -0.05  -0.03  -0.09     0.06   0.04  -0.02
    14   6    -0.07   0.06   0.01    -0.06  -0.04  -0.02     0.10   0.10  -0.06
    15   6    -0.10   0.05   0.10    -0.07  -0.01  -0.00     0.05   0.09  -0.03
    16   6    -0.08   0.01   0.07    -0.09   0.02   0.04     0.04   0.11  -0.01
    17   6    -0.06   0.01   0.10    -0.10   0.05   0.04    -0.07   0.12   0.02
    18   6     0.01  -0.06   0.09    -0.05   0.08   0.05    -0.10   0.11  -0.00
    19   6     0.06  -0.11   0.11    -0.05   0.11   0.03    -0.11   0.12  -0.01
    20   6     0.03  -0.13   0.09     0.04   0.12  -0.01    -0.10  -0.07   0.04
    21   6     0.06  -0.16   0.12     0.03   0.06   0.05    -0.08  -0.02   0.01
    22   6     0.08  -0.15   0.14     0.03   0.06   0.08    -0.09   0.06  -0.01
    23   6     0.08  -0.11   0.11     0.07   0.02   0.15    -0.04   0.04  -0.02
    24   6     0.03  -0.06   0.08     0.04   0.03   0.11    -0.04   0.09  -0.01
    25   6    -0.01  -0.04   0.03     0.04   0.02   0.10     0.05   0.08  -0.02
    26   6    -0.04   0.00   0.03    -0.05  -0.02   0.07     0.11   0.11  -0.02
    27   6    -0.05   0.00  -0.01    -0.06  -0.06   0.06     0.15   0.14  -0.04
    28   6    -0.05   0.07  -0.02    -0.06  -0.10   0.04     0.14   0.13  -0.06
    29   6    -0.06   0.08  -0.05    -0.10  -0.02  -0.21     0.01  -0.02   0.01
    30   6    -0.02   0.07  -0.10     0.05  -0.14   0.00     0.11  -0.10  -0.03
    31   6    -0.05   0.11  -0.11     0.05  -0.11  -0.04     0.10  -0.12   0.01
    32   6    -0.01   0.05  -0.09     0.05  -0.08  -0.05     0.09  -0.11   0.00
    33   6     0.06  -0.01  -0.10     0.10  -0.05  -0.04     0.07  -0.12  -0.02
    34   6     0.08  -0.05  -0.12     0.08  -0.06  -0.00     0.10  -0.13  -0.06
    35   6     0.02  -0.08  -0.12     0.05  -0.04   0.07     0.09  -0.04  -0.05
    36   6    -0.01   0.00  -0.08     0.02  -0.07   0.05     0.10   0.05  -0.02
    37   6    -0.02   0.10  -0.08     0.02  -0.14   0.03     0.10   0.01  -0.03
    38   6    -0.03   0.14  -0.09    -0.03  -0.12   0.01     0.10   0.07  -0.04
    39   6    -0.06   0.16  -0.12    -0.03  -0.06  -0.05     0.07   0.01  -0.01
    40   6    -0.08   0.15  -0.14    -0.03  -0.06  -0.08     0.08  -0.07   0.01
    41   6     0.04   0.00  -0.03     0.04   0.02  -0.07    -0.09  -0.11   0.02
    42   6     0.07  -0.01  -0.07     0.09  -0.01  -0.04    -0.04  -0.10   0.02
    43   6     0.10  -0.04  -0.10     0.07   0.01  -0.00    -0.05  -0.09   0.03
    44   6     0.09  -0.06  -0.14     0.07  -0.01   0.04     0.03  -0.09  -0.03
    45   6     0.07  -0.09  -0.11     0.06   0.01   0.13     0.02  -0.04  -0.04
    46   6     0.03  -0.09  -0.12     0.07   0.02   0.14     0.04  -0.03  -0.04
    47   6    -0.02  -0.02  -0.03     0.02  -0.03   0.08     0.13   0.11  -0.01
    48   6    -0.00  -0.03  -0.01     0.07   0.02   0.14     0.07   0.08  -0.01
    49   6     0.03  -0.08  -0.02     0.10   0.04   0.19     0.04   0.02  -0.03
    50   6     0.06  -0.08   0.05     0.10   0.02   0.21    -0.01   0.02  -0.01
    51   6     0.06  -0.09   0.00     0.07   0.02   0.17    -0.01  -0.03  -0.02
    52   6     0.06  -0.10   0.05     0.05   0.04   0.09    -0.06  -0.04   0.02
    53   6     0.07  -0.06  -0.02     0.06   0.04   0.02    -0.10  -0.10   0.06
    54   6     0.05  -0.06   0.02     0.06   0.10  -0.03    -0.14  -0.13   0.06
    55   6     0.04  -0.00   0.01     0.06   0.06  -0.06    -0.14  -0.14   0.04
    56   6    -0.08   0.11  -0.11    -0.07  -0.02  -0.15     0.03  -0.05   0.02
    57   6     0.00   0.03   0.01    -0.07  -0.02  -0.13    -0.07  -0.07   0.01
    58   6     0.03  -0.03  -0.12     0.07  -0.08   0.02     0.11  -0.13  -0.06
    59   6    -0.03   0.05  -0.07    -0.04  -0.03  -0.11     0.03  -0.08   0.01
    60   6     0.01   0.04  -0.03    -0.04  -0.02  -0.10    -0.05  -0.08   0.02
    61   6    -0.00  -0.00   0.00    -0.00   0.00   0.00     0.01   0.00   0.00
    62   6     0.01  -0.00   0.00    -0.00   0.00  -0.00    -0.02   0.01   0.00
    63   6    -0.00   0.00   0.00    -0.01   0.01  -0.00     0.00  -0.01  -0.00
    64   1     0.06   0.00   0.01     0.03   0.00   0.01     0.06  -0.01  -0.00
    65   1    -0.04   0.05   0.03    -0.05   0.04   0.02    -0.04   0.03   0.02
    66   1    -0.03  -0.04  -0.04    -0.04  -0.03  -0.04    -0.02  -0.05  -0.04
    67   6    -0.01  -0.00  -0.00    -0.02  -0.01  -0.00     0.00   0.01   0.01
    68   1    -0.02  -0.00  -0.00     0.02  -0.00   0.01    -0.10   0.01  -0.02
    69   1    -0.02  -0.01  -0.02    -0.04   0.02  -0.04     0.05  -0.06   0.08
    70   1    -0.02   0.00   0.01    -0.05  -0.04   0.02     0.08   0.09  -0.04
    71   6     0.02  -0.00   0.00     0.00   0.00   0.00    -0.06   0.01  -0.01
    72   1     0.04  -0.00   0.01     0.00   0.00   0.00    -0.07   0.00  -0.01
    73   1     0.02  -0.00   0.00     0.00   0.00   0.00    -0.07   0.01  -0.02
    74   6    -0.01  -0.00  -0.00     0.01  -0.00   0.01     0.04   0.01   0.00
    75   1    -0.01  -0.00   0.00     0.02  -0.00   0.01     0.06   0.01   0.01
    76   1    -0.01  -0.00  -0.00     0.01  -0.00   0.00     0.04   0.01   0.01
                     13                     14                     15
                      A                      A                      A
 Frequencies --    267.2778               295.6470               344.3503
 Red. masses --     10.8111                 1.0785                 2.4525
 Frc consts  --      0.4550                 0.0555                 0.1713
 IR Inten    --      0.0000                 0.0000                 0.0000
  Atom  AN      X      Y      Z        X      Y      Z        X      Y      Z
     1   6     0.01   0.09   0.04    -0.00   0.00   0.00     0.00  -0.00   0.00
     2   6    -0.01   0.09   0.06    -0.00  -0.00   0.00     0.00   0.00   0.00
     3   6    -0.04   0.06   0.07    -0.00  -0.00   0.00     0.00   0.00   0.00
     4   6    -0.02   0.04   0.12    -0.00   0.00   0.00     0.00   0.00   0.00
     5   6     0.00   0.03   0.09    -0.00   0.00   0.00     0.00   0.00  -0.00
     6   6     0.06   0.04   0.06    -0.00   0.00   0.00     0.00  -0.00  -0.00
     7   6     0.02   0.09   0.02    -0.00  -0.00   0.00    -0.00  -0.00   0.00
     8   6     0.00   0.11  -0.01    -0.00  -0.00   0.00    -0.00  -0.00   0.00
     9   6    -0.02   0.11   0.03    -0.00  -0.00   0.00     0.00   0.00   0.00
    10   6    -0.07   0.05  -0.00     0.00  -0.00  -0.00     0.00   0.00  -0.00
    11   6    -0.08   0.02   0.02     0.00  -0.00  -0.00     0.00   0.00   0.00
    12   6    -0.05  -0.00   0.08     0.00   0.00   0.00     0.00   0.00   0.00
    13   6    -0.02  -0.04   0.09     0.00   0.00  -0.00    -0.00   0.00   0.00
    14   6     0.00  -0.04   0.07     0.00   0.00  -0.00     0.00   0.00  -0.00
    15   6     0.06  -0.00   0.06    -0.00   0.00  -0.00     0.00   0.00  -0.00
    16   6     0.16  -0.00   0.01    -0.00   0.00  -0.00     0.00   0.00  -0.00
    17   6     0.16  -0.01   0.02    -0.01   0.00   0.00    -0.00  -0.00  -0.00
    18   6     0.18  -0.02   0.03    -0.01   0.00   0.00    -0.00  -0.00  -0.00
    19   6     0.08   0.04  -0.00    -0.00  -0.00   0.00    -0.00  -0.00   0.00
    20   6    -0.01   0.10  -0.04    -0.00  -0.00   0.00    -0.00   0.00   0.00
    21   6     0.02   0.09  -0.08    -0.00  -0.00   0.00    -0.00  -0.00   0.00
    22   6     0.05   0.05  -0.03    -0.00  -0.00   0.00    -0.00  -0.00   0.00
    23   6     0.12   0.00   0.00    -0.00  -0.00   0.00    -0.00  -0.00  -0.00
    24   6     0.21  -0.02   0.04    -0.00   0.00  -0.00    -0.00  -0.00  -0.00
    25   6     0.21  -0.01   0.04    -0.00   0.00  -0.00    -0.00  -0.00  -0.00
    26   6     0.19  -0.00   0.02     0.00   0.00  -0.00    -0.00   0.00  -0.00
    27   6     0.08  -0.04   0.02     0.00   0.00  -0.00     0.00   0.00  -0.00
    28   6     0.01  -0.07   0.05     0.00   0.00  -0.00     0.00   0.00  -0.00
    29   6    -0.08   0.01   0.02     0.00   0.00  -0.00     0.00   0.00   0.00
    30   6    -0.04  -0.08  -0.02     0.00  -0.00  -0.00    -0.00  -0.00   0.00
    31   6    -0.09  -0.03  -0.00     0.00  -0.00   0.00    -0.00  -0.00   0.00
    32   6    -0.16   0.01  -0.02     0.00  -0.00   0.00    -0.01   0.00  -0.00
    33   6    -0.16   0.02  -0.01     0.00  -0.00   0.00    -0.00   0.00  -0.00
    34   6    -0.08  -0.02  -0.05    -0.00   0.00   0.00     0.00  -0.00  -0.00
    35   6    -0.01  -0.10  -0.07     0.00  -0.00  -0.00     0.00   0.00   0.00
    36   6     0.00  -0.12  -0.03     0.00   0.00  -0.00     0.00   0.00   0.00
    37   6    -0.02  -0.11   0.01     0.00   0.00  -0.00    -0.00  -0.00   0.00
    38   6    -0.01  -0.10   0.04     0.00   0.00  -0.00    -0.00   0.00   0.00
    39   6    -0.04  -0.07   0.07     0.00   0.00  -0.00    -0.00  -0.00   0.00
    40   6    -0.07  -0.03   0.02     0.00  -0.00   0.00    -0.00  -0.00   0.00
    41   6    -0.16   0.01  -0.02     0.00  -0.00  -0.00    -0.00  -0.00  -0.00
    42   6    -0.16   0.01  -0.01     0.00  -0.00  -0.00     0.00  -0.00  -0.00
    43   6    -0.08   0.01  -0.05     0.00  -0.00   0.00     0.00   0.00  -0.00
    44   6    -0.03  -0.02  -0.08    -0.00  -0.00   0.00     0.00   0.00  -0.00
    45   6     0.00  -0.04  -0.12     0.00  -0.00  -0.00     0.00   0.00   0.00
    46   6     0.02  -0.07  -0.08     0.00  -0.00  -0.00     0.00   0.00   0.00
    47   6     0.05  -0.07  -0.00     0.00   0.00  -0.00     0.00   0.00  -0.00
    48   6     0.12  -0.03   0.01     0.00   0.00  -0.00    -0.00  -0.00  -0.00
    49   6     0.06  -0.03  -0.04     0.00  -0.00  -0.00     0.00  -0.00  -0.00
    50   6     0.06  -0.01  -0.04    -0.00   0.00   0.00     0.00  -0.00   0.00
    51   6     0.03   0.00  -0.09    -0.00  -0.00   0.00     0.00   0.00   0.00
    52   6    -0.00   0.05  -0.09    -0.00  -0.00   0.00    -0.00   0.00   0.00
    53   6    -0.03   0.04  -0.06     0.00  -0.00  -0.00    -0.00   0.00   0.00
    54   6    -0.04   0.06  -0.04     0.00  -0.00  -0.00    -0.00   0.00  -0.00
    55   6    -0.10   0.03  -0.02     0.00  -0.00  -0.00    -0.00   0.00  -0.00
    56   6    -0.12  -0.00  -0.01     0.00   0.00   0.00    -0.00  -0.00   0.00
    57   6    -0.12   0.02  -0.01     0.00  -0.00  -0.00     0.00  -0.00  -0.00
    58   6    -0.03  -0.07  -0.04     0.00  -0.00  -0.00     0.00   0.00   0.00
    59   6    -0.17   0.01  -0.03    -0.00  -0.00  -0.00    -0.01  -0.00  -0.00
    60   6    -0.18   0.00  -0.03     0.00  -0.00  -0.00    -0.00  -0.00  -0.00
    61   6     0.06  -0.00   0.00    -0.01  -0.00  -0.01     0.01   0.01  -0.07
    62   6     0.06  -0.00   0.00    -0.01  -0.00  -0.01     0.01  -0.01  -0.07
    63   6     0.01  -0.00  -0.00     0.02   0.03   0.01    -0.01   0.22   0.03
    64   1    -0.13  -0.00  -0.02    -0.35   0.02  -0.03    -0.06   0.20   0.24
    65   1     0.08  -0.11  -0.03     0.27  -0.22  -0.14     0.01   0.31  -0.02
    66   1     0.07   0.12   0.05     0.20   0.31   0.23    -0.01   0.32  -0.00
    67   6     0.03   0.00  -0.01    -0.03  -0.03  -0.00     0.00  -0.22   0.04
    68   1     0.03   0.00  -0.01     0.37  -0.02   0.11    -0.25  -0.19   0.22
    69   1     0.02   0.01  -0.03    -0.21   0.26  -0.23     0.10  -0.47   0.13
    70   1     0.00   0.00   0.02    -0.27  -0.35   0.13     0.15  -0.16  -0.08
    71   6     0.12   0.00   0.02    -0.03   0.01  -0.00     0.01   0.10   0.01
    72   1     0.14   0.01   0.02    -0.03   0.02  -0.01     0.01   0.18  -0.03
    73   1     0.12   0.00   0.03    -0.01   0.01   0.02    -0.03   0.09   0.13
    74   6     0.07  -0.01   0.01     0.03  -0.00   0.00    -0.01  -0.10   0.00
    75   1     0.06  -0.01   0.01     0.03  -0.00   0.00    -0.03  -0.10   0.13
    76   1     0.09  -0.02   0.01     0.04  -0.00   0.00     0.01  -0.19  -0.04
                     16                     17                     18
                      A                      A                      A
 Frequencies --    356.8991               357.2154               357.5721
 Red. masses --     11.9687                11.9527                11.9284
 Frc consts  --      0.8982                 0.8986                 0.8986
 IR Inten    --      0.0000                 0.0000                 0.0000
  Atom  AN      X      Y      Z        X      Y      Z        X      Y      Z
     1   6     0.09  -0.14  -0.12    -0.01  -0.02  -0.10    -0.04   0.05   0.00
     2   6     0.05  -0.07  -0.11    -0.01  -0.12  -0.14    -0.04  -0.10  -0.03
     3   6    -0.01  -0.05  -0.07     0.02  -0.12  -0.15    -0.08  -0.14  -0.05
     4   6    -0.01  -0.01   0.05     0.06  -0.10  -0.17    -0.07  -0.06   0.11
     5   6    -0.02  -0.05   0.07     0.06  -0.05  -0.16    -0.04   0.04   0.05
     6   6     0.12  -0.14  -0.07    -0.01  -0.01  -0.08    -0.04   0.07   0.03
     7   6     0.04   0.01  -0.06    -0.04   0.13  -0.06    -0.02   0.09  -0.01
     8   6     0.03   0.20  -0.04    -0.00   0.10  -0.07     0.00   0.06   0.01
     9   6     0.06   0.10  -0.04    -0.02  -0.01  -0.07    -0.04  -0.08  -0.00
    10   6     0.05   0.06   0.00    -0.00   0.01   0.03    -0.05  -0.06  -0.05
    11   6    -0.03  -0.04  -0.05     0.07  -0.02   0.08    -0.12  -0.14  -0.11
    12   6    -0.02  -0.00   0.11     0.05  -0.06   0.03    -0.03  -0.08   0.21
    13   6    -0.06   0.00   0.14     0.02  -0.04   0.03     0.00  -0.08   0.17
    14   6    -0.12  -0.04   0.19     0.01  -0.00   0.00     0.05   0.05   0.01
    15   6    -0.14  -0.05   0.18    -0.01  -0.01  -0.04     0.05   0.04  -0.05
    16   6    -0.05  -0.07   0.07    -0.14   0.01   0.04     0.12   0.06  -0.08
    17   6     0.11  -0.12  -0.02    -0.15   0.06   0.02     0.02   0.07  -0.03
    18   6     0.10  -0.08  -0.00    -0.13   0.12   0.03    -0.02   0.06  -0.03
    19   6     0.02  -0.01  -0.03    -0.09   0.13  -0.01    -0.00   0.06  -0.02
    20   6     0.00   0.22  -0.06     0.03   0.04  -0.04     0.06   0.08   0.02
    21   6    -0.04   0.14  -0.03     0.02  -0.02   0.01     0.06  -0.04   0.11
    22   6    -0.05   0.07  -0.07     0.02  -0.00   0.06     0.05  -0.03   0.04
    23   6    -0.03   0.02  -0.06     0.11  -0.05   0.19     0.03  -0.02   0.03
    24   6     0.03  -0.02  -0.02     0.03   0.03   0.11    -0.02   0.02  -0.03
    25   6    -0.02  -0.01  -0.01     0.02   0.02   0.09    -0.03  -0.01  -0.09
    26   6    -0.04  -0.02   0.01    -0.08  -0.02   0.06     0.13   0.07  -0.08
    27   6     0.01   0.03   0.01    -0.03  -0.01   0.04     0.12   0.10  -0.05
    28   6    -0.03   0.07   0.04     0.02   0.00   0.01     0.11   0.13  -0.05
    29   6    -0.02  -0.02  -0.01     0.11  -0.04   0.19    -0.03  -0.09   0.06
    30   6     0.04   0.01  -0.06    -0.04   0.13  -0.06    -0.03   0.10  -0.01
    31   6     0.02  -0.01  -0.03    -0.09   0.12  -0.01    -0.00   0.06  -0.02
    32   6     0.10  -0.08  -0.00    -0.13   0.12   0.03    -0.02   0.06  -0.03
    33   6     0.12  -0.12  -0.02    -0.17   0.06   0.03     0.03   0.07  -0.03
    34   6     0.12  -0.14  -0.07    -0.01  -0.01  -0.08    -0.04   0.08   0.04
    35   6     0.05  -0.07  -0.11    -0.01  -0.12  -0.15    -0.04  -0.10  -0.03
    36   6     0.06   0.10  -0.04    -0.02  -0.01  -0.07    -0.04  -0.08  -0.00
    37   6     0.03   0.20  -0.04    -0.00   0.10  -0.07     0.00   0.06   0.01
    38   6     0.00   0.22  -0.06     0.03   0.04  -0.04     0.06   0.08   0.02
    39   6    -0.04   0.13  -0.03     0.01  -0.02   0.01     0.05  -0.04   0.11
    40   6    -0.05   0.07  -0.07     0.02  -0.01   0.06     0.05  -0.03   0.04
    41   6    -0.03  -0.02   0.01    -0.08  -0.02   0.06     0.12   0.07  -0.08
    42   6    -0.06  -0.07   0.07    -0.15   0.01   0.04     0.14   0.06  -0.09
    43   6    -0.15  -0.05   0.18    -0.01  -0.01  -0.04     0.06   0.05  -0.05
    44   6    -0.02  -0.05   0.07     0.06  -0.05  -0.16    -0.04   0.04   0.05
    45   6    -0.01  -0.01   0.05     0.06  -0.10  -0.18    -0.06  -0.06   0.12
    46   6    -0.01  -0.05  -0.07     0.02  -0.12  -0.15    -0.08  -0.14  -0.05
    47   6     0.05   0.06   0.00    -0.00   0.02   0.03    -0.05  -0.07  -0.05
    48   6    -0.01   0.00  -0.01     0.05   0.04   0.09    -0.14  -0.12  -0.12
    49   6    -0.03  -0.04  -0.05     0.07  -0.02   0.08    -0.12  -0.14  -0.11
    50   6    -0.02  -0.02  -0.01     0.12  -0.04   0.19    -0.03  -0.09   0.07
    51   6    -0.02  -0.00   0.11     0.06  -0.06   0.03    -0.03  -0.08   0.22
    52   6    -0.07   0.01   0.14     0.02  -0.04   0.03     0.01  -0.08   0.17
    53   6    -0.13  -0.04   0.19     0.02  -0.00  -0.00     0.05   0.05   0.01
    54   6    -0.03   0.07   0.04     0.02   0.01   0.01     0.11   0.13  -0.05
    55   6     0.01   0.03   0.01    -0.03  -0.01   0.04     0.11   0.10  -0.05
    56   6    -0.03   0.02  -0.06     0.11  -0.05   0.18     0.03  -0.03   0.03
    57   6    -0.00   0.00  -0.01     0.06   0.04   0.09    -0.14  -0.12  -0.12
    58   6     0.09  -0.14  -0.12    -0.01  -0.03  -0.10    -0.04   0.06   0.01
    59   6     0.02  -0.02  -0.03     0.03   0.03   0.11    -0.02   0.02  -0.03
    60   6    -0.01  -0.01  -0.00     0.03   0.03   0.09    -0.03  -0.01  -0.09
    61   6     0.01   0.00   0.00     0.00  -0.00  -0.00    -0.00   0.00   0.00
    62   6     0.00   0.00   0.00    -0.00  -0.00  -0.00     0.00  -0.00   0.00
    63   6     0.00   0.00   0.00     0.01   0.00   0.00    -0.01  -0.00  -0.00
    64   1    -0.01   0.00   0.00    -0.01   0.00   0.01     0.02  -0.00  -0.00
    65   1     0.01  -0.00  -0.00     0.03  -0.00  -0.01    -0.04   0.02   0.02
    66   1     0.01   0.02   0.01     0.02   0.02   0.02    -0.03  -0.03  -0.03
    67   6    -0.01  -0.00   0.00     0.01  -0.00   0.00    -0.00   0.00  -0.00
    68   1     0.00  -0.00   0.01     0.02  -0.00   0.01    -0.02   0.00  -0.01
    69   1    -0.02   0.00  -0.02     0.01   0.00   0.01     0.00  -0.01  -0.00
    70   1    -0.02  -0.02   0.01     0.02  -0.01  -0.01     0.00   0.01   0.00
    71   6    -0.02   0.00  -0.00     0.01   0.00   0.00     0.00  -0.00  -0.00
    72   1    -0.02   0.00  -0.00     0.02   0.01   0.00     0.00  -0.01  -0.00
    73   1    -0.01   0.00  -0.00     0.01   0.00   0.01    -0.00  -0.00  -0.01
    74   6     0.00  -0.00  -0.00     0.00  -0.00  -0.00    -0.00   0.00   0.00
    75   1    -0.00  -0.00   0.00    -0.00  -0.00  -0.00     0.01   0.00  -0.00
    76   1     0.00  -0.00  -0.00     0.01  -0.00   0.00    -0.01   0.01   0.00
                     19                     20                     21
                      A                      A                      A
 Frequencies --    360.0000               360.1032               361.0814
 Red. masses --     11.9673                11.9071                11.9261
 Frc consts  --      0.9138                 0.9097                 0.9161
 IR Inten    --      0.0000                 0.0000                 0.0000
  Atom  AN      X      Y      Z        X      Y      Z        X      Y      Z
     1   6    -0.01  -0.00  -0.12     0.01  -0.07   0.01     0.09   0.00   0.05
     2   6    -0.05   0.04   0.02     0.02   0.04  -0.02     0.14   0.00   0.03
     3   6    -0.08   0.01   0.02    -0.08   0.05  -0.03     0.17  -0.01  -0.02
     4   6    -0.09   0.03  -0.04    -0.11   0.04  -0.04     0.07   0.07  -0.07
     5   6    -0.07   0.08  -0.09    -0.11  -0.08  -0.05     0.05   0.09  -0.09
     6   6    -0.07   0.06  -0.14    -0.06  -0.08  -0.03     0.01   0.05  -0.05
     7   6     0.09  -0.08  -0.11     0.09  -0.03   0.07    -0.00  -0.04   0.07
     8   6     0.10  -0.01   0.03     0.12  -0.00   0.03    -0.00   0.03   0.10
     9   6     0.04   0.06   0.11     0.11   0.04  -0.00     0.11   0.00   0.04
    10   6     0.06   0.06   0.18     0.11   0.03  -0.09     0.10  -0.05   0.00
    11   6    -0.08  -0.04   0.05    -0.07   0.10  -0.06     0.14  -0.09  -0.02
    12   6    -0.04   0.02  -0.02    -0.09   0.09   0.00    -0.01   0.06   0.01
    13   6     0.06  -0.01   0.04    -0.02   0.03   0.04    -0.12   0.10   0.07
    14   6     0.07   0.08   0.04     0.01  -0.07  -0.06    -0.10   0.13   0.01
    15   6    -0.02   0.06  -0.01    -0.07  -0.12  -0.06    -0.04   0.12  -0.07
    16   6    -0.09   0.05   0.02    -0.09  -0.13  -0.04    -0.05   0.03  -0.09
    17   6    -0.09   0.04  -0.10    -0.11  -0.08   0.02    -0.07   0.02  -0.04
    18   6    -0.01  -0.03  -0.12    -0.06   0.02   0.07    -0.11  -0.07  -0.04
    19   6     0.10  -0.12  -0.10     0.03   0.00   0.14    -0.07  -0.07   0.09
    20   6     0.11  -0.00   0.05     0.15  -0.01   0.03    -0.09   0.07   0.08
    21   6     0.10  -0.05   0.05     0.06   0.02   0.13    -0.12   0.05   0.12
    22   6     0.09  -0.12  -0.06     0.05   0.05   0.17    -0.10  -0.06   0.10
    23   6    -0.04  -0.07  -0.08    -0.02   0.12   0.10    -0.03  -0.09   0.02
    24   6    -0.08  -0.06  -0.08    -0.06   0.05   0.04    -0.07  -0.11  -0.06
    25   6    -0.08  -0.04   0.06    -0.04   0.00  -0.04     0.02  -0.13  -0.11
    26   6    -0.06   0.00   0.10     0.01  -0.10  -0.07    -0.01  -0.03  -0.09
    27   6     0.06   0.06   0.16     0.15  -0.04  -0.10     0.02   0.01  -0.03
    28   6     0.12   0.05   0.10     0.14  -0.04  -0.08    -0.07   0.09   0.03
    29   6    -0.06  -0.05  -0.06    -0.08   0.13   0.01     0.03  -0.06   0.02
    30   6     0.09  -0.09  -0.11     0.09  -0.03   0.06    -0.01  -0.05   0.07
    31   6     0.09  -0.12  -0.11     0.02   0.00   0.14    -0.07  -0.07   0.08
    32   6    -0.02  -0.03  -0.12    -0.07   0.02   0.07    -0.12  -0.06  -0.04
    33   6    -0.10   0.04  -0.10    -0.13  -0.08   0.03    -0.08   0.02  -0.04
    34   6    -0.07   0.05  -0.14    -0.06  -0.08  -0.03     0.01   0.05  -0.05
    35   6    -0.05   0.02   0.01     0.02   0.03  -0.02     0.13   0.00   0.03
    36   6     0.04   0.06   0.11     0.11   0.03  -0.01     0.11  -0.00   0.04
    37   6     0.10  -0.01   0.03     0.12  -0.00   0.03    -0.01   0.02   0.10
    38   6     0.11  -0.00   0.05     0.15  -0.01   0.04    -0.09   0.07   0.09
    39   6     0.10  -0.05   0.05     0.06   0.02   0.13    -0.13   0.05   0.12
    40   6     0.08  -0.12  -0.06     0.05   0.05   0.17    -0.10  -0.06   0.10
    41   6    -0.06   0.00   0.09     0.01  -0.10  -0.07    -0.01  -0.03  -0.09
    42   6    -0.12   0.05   0.03    -0.11  -0.13  -0.04    -0.04   0.03  -0.09
    43   6    -0.02   0.06  -0.01    -0.08  -0.12  -0.06    -0.04   0.12  -0.07
    44   6    -0.07   0.08  -0.10    -0.11  -0.09  -0.06     0.04   0.09  -0.09
    45   6    -0.09   0.03  -0.05    -0.11   0.04  -0.05     0.07   0.08  -0.07
    46   6    -0.08   0.01   0.01    -0.07   0.05  -0.03     0.17  -0.01  -0.02
    47   6     0.07   0.07   0.19     0.12   0.04  -0.09     0.10  -0.05   0.00
    48   6    -0.01  -0.02   0.13    -0.00   0.04  -0.07     0.12  -0.12  -0.06
    49   6    -0.07  -0.04   0.05    -0.06   0.10  -0.06     0.14  -0.09  -0.02
    50   6    -0.06  -0.05  -0.05    -0.08   0.14   0.01     0.03  -0.06   0.02
    51   6    -0.04   0.02  -0.02    -0.08   0.09  -0.00    -0.01   0.07   0.01
    52   6     0.06   0.00   0.03    -0.02   0.03   0.03    -0.12   0.11   0.06
    53   6     0.07   0.08   0.04     0.02  -0.06  -0.07    -0.10   0.13   0.01
    54   6     0.12   0.06   0.09     0.14  -0.04  -0.09    -0.07   0.09   0.03
    55   6     0.06   0.06   0.15     0.14  -0.04  -0.10     0.02   0.01  -0.03
    56   6    -0.04  -0.07  -0.08    -0.02   0.12   0.10    -0.03  -0.09   0.02
    57   6    -0.01  -0.02   0.13    -0.01   0.04  -0.07     0.11  -0.12  -0.06
    58   6    -0.01  -0.02  -0.13     0.02  -0.07   0.01     0.08  -0.00   0.05
    59   6    -0.07  -0.06  -0.08    -0.06   0.05   0.04    -0.07  -0.11  -0.06
    60   6    -0.08  -0.04   0.06    -0.03   0.00  -0.04     0.01  -0.13  -0.11
    61   6     0.01  -0.00  -0.00     0.01  -0.00   0.00     0.00   0.00   0.01
    62   6    -0.00   0.00  -0.00     0.00  -0.00   0.00     0.00   0.00   0.01
    63   6     0.01   0.00  -0.00     0.00  -0.01  -0.00     0.00  -0.02  -0.01
    64   1    -0.00   0.00   0.00     0.03  -0.01   0.00     0.02  -0.02  -0.03
    65   1     0.01  -0.00  -0.00    -0.02   0.02   0.01    -0.01  -0.02   0.00
    66   1     0.01   0.01   0.00    -0.01  -0.03  -0.02    -0.01  -0.04  -0.01
    67   6     0.01   0.00   0.00     0.01   0.01   0.00     0.00   0.02   0.00
    68   1     0.00   0.00   0.00    -0.02   0.01  -0.01     0.01   0.02  -0.02
    69   1     0.02  -0.00   0.02     0.03  -0.01   0.02     0.00   0.03   0.00
    70   1     0.02   0.00  -0.01     0.03   0.03  -0.01     0.00   0.03   0.00
    71   6     0.01   0.00   0.00     0.02  -0.00   0.00     0.01  -0.00   0.00
    72   1     0.01   0.01  -0.00     0.02  -0.00   0.00     0.02  -0.01   0.01
    73   1     0.02   0.00   0.01     0.01  -0.00   0.00     0.01  -0.00  -0.00
    74   6     0.02  -0.00   0.00     0.01  -0.00   0.00     0.01   0.01   0.00
    75   1     0.01  -0.00   0.01    -0.00  -0.00   0.00    -0.01   0.00  -0.00
    76   1     0.03  -0.01   0.00     0.03  -0.00   0.01     0.01   0.00   0.00
                     22                     23                     24
                      A                      A                      A
 Frequencies --    361.4849               361.7736               363.3598
 Red. masses --     11.9647                11.9845                11.9149
 Frc consts  --      0.9212                 0.9242                 0.9269
 IR Inten    --      0.0000                 0.0000                 0.0000
  Atom  AN      X      Y      Z        X      Y      Z        X      Y      Z
     1   6    -0.05   0.09  -0.11    -0.16  -0.08   0.03     0.07  -0.01  -0.00
     2   6    -0.02   0.07  -0.15    -0.14  -0.03   0.00     0.07   0.07  -0.05
     3   6    -0.00   0.14  -0.08     0.01   0.02  -0.03     0.05   0.02  -0.06
     4   6     0.01   0.18   0.01     0.07   0.00  -0.02     0.09  -0.01   0.00
     5   6     0.02   0.14   0.03     0.03  -0.05   0.02     0.09   0.00   0.07
     6   6    -0.02   0.08  -0.03    -0.11  -0.11   0.01     0.08   0.01   0.08
     7   6    -0.07   0.06  -0.12    -0.16  -0.06   0.04     0.00  -0.08  -0.02
     8   6    -0.03   0.01  -0.11    -0.15  -0.01   0.06    -0.04   0.02  -0.10
     9   6    -0.01  -0.05  -0.15    -0.14  -0.02   0.02     0.01   0.16  -0.09
    10   6    -0.02  -0.13  -0.05    -0.06   0.06  -0.01     0.03   0.19  -0.07
    11   6    -0.03   0.05  -0.02     0.07   0.09  -0.06    -0.01   0.01  -0.07
    12   6    -0.03   0.13   0.03     0.18   0.07   0.01     0.03  -0.06  -0.01
    13   6     0.04   0.07   0.03     0.15   0.07   0.07     0.03  -0.10   0.02
    14   6     0.07   0.03   0.04     0.12   0.05   0.09     0.06  -0.02  -0.01
    15   6     0.11   0.05   0.07     0.03  -0.04   0.05     0.08  -0.00   0.07
    16   6     0.13  -0.08   0.07    -0.03  -0.09   0.02     0.01   0.03   0.12
    17   6     0.01  -0.08   0.04    -0.09  -0.12  -0.03     0.00   0.03   0.14
    18   6    -0.05  -0.10   0.04    -0.07  -0.10  -0.05    -0.08  -0.03   0.10
    19   6    -0.10  -0.03  -0.03    -0.09  -0.07  -0.00    -0.01  -0.15   0.05
    20   6     0.04  -0.00  -0.04    -0.01   0.07   0.09    -0.04  -0.03  -0.09
    21   6    -0.02   0.01   0.02     0.08   0.04   0.07    -0.03  -0.17   0.02
    22   6    -0.06  -0.03   0.01     0.06   0.01   0.02    -0.02  -0.19   0.07
    23   6    -0.08  -0.04   0.07     0.12   0.04  -0.07    -0.08  -0.10   0.02
    24   6    -0.03  -0.13   0.10     0.03  -0.02  -0.13    -0.18   0.01   0.02
    25   6     0.03  -0.13   0.11     0.00   0.01  -0.09    -0.17   0.04  -0.00
    26   6     0.11  -0.13   0.10    -0.01  -0.00  -0.05    -0.04   0.09   0.04
    27   6     0.06  -0.14   0.03     0.02   0.07   0.02     0.05   0.15  -0.06
    28   6     0.07  -0.03   0.04     0.04   0.10   0.06     0.03   0.06  -0.08
    29   6    -0.05   0.05   0.02     0.17   0.09  -0.05    -0.01  -0.03  -0.04
    30   6    -0.07   0.06  -0.11    -0.16  -0.06   0.04    -0.00  -0.10  -0.02
    31   6    -0.10  -0.03  -0.02    -0.08  -0.08  -0.01    -0.02  -0.14   0.05
    32   6    -0.04  -0.10   0.04    -0.06  -0.11  -0.06    -0.09  -0.03   0.10
    33   6     0.03  -0.08   0.03    -0.09  -0.12  -0.03    -0.02   0.03   0.13
    34   6    -0.02   0.07  -0.03    -0.11  -0.11   0.01     0.07   0.01   0.08
    35   6    -0.03   0.08  -0.15    -0.14  -0.03   0.00     0.07   0.05  -0.05
    36   6    -0.01  -0.05  -0.15    -0.14  -0.01   0.02     0.01   0.15  -0.09
    37   6    -0.03   0.02  -0.11    -0.15  -0.01   0.06    -0.04   0.00  -0.09
    38   6     0.03   0.00  -0.04    -0.01   0.06   0.09    -0.05  -0.06  -0.08
    39   6    -0.02   0.02   0.01     0.08   0.04   0.07    -0.04  -0.18   0.03
    40   6    -0.06  -0.03   0.01     0.06   0.01   0.01    -0.03  -0.18   0.07
    41   6     0.10  -0.14   0.11    -0.01   0.00  -0.05    -0.05   0.09   0.04
    42   6     0.14  -0.08   0.07    -0.04  -0.09   0.02    -0.01   0.03   0.12
    43   6     0.12   0.04   0.07     0.03  -0.04   0.05     0.07   0.01   0.07
    44   6     0.02   0.14   0.03     0.03  -0.06   0.02     0.09  -0.00   0.06
    45   6     0.01   0.18   0.02     0.07  -0.00  -0.02     0.09  -0.01  -0.00
    46   6    -0.00   0.14  -0.08     0.01   0.02  -0.03     0.06   0.02  -0.06
    47   6    -0.03  -0.13  -0.05    -0.07   0.06  -0.01     0.04   0.19  -0.07
    48   6    -0.02  -0.08  -0.01     0.03   0.05  -0.08    -0.06   0.11  -0.06
    49   6    -0.04   0.05  -0.02     0.07   0.09  -0.06     0.01   0.00  -0.07
    50   6    -0.05   0.06   0.02     0.17   0.09  -0.05     0.00  -0.03  -0.04
    51   6    -0.03   0.13   0.04     0.18   0.06   0.01     0.04  -0.05  -0.02
    52   6     0.04   0.07   0.04     0.15   0.07   0.07     0.04  -0.09   0.01
    53   6     0.08   0.03   0.05     0.12   0.05   0.09     0.06  -0.00  -0.02
    54   6     0.07  -0.03   0.04     0.04   0.11   0.06     0.03   0.08  -0.08
    55   6     0.06  -0.15   0.03     0.03   0.07   0.02     0.04   0.15  -0.06
    56   6    -0.07  -0.04   0.07     0.11   0.04  -0.07    -0.09  -0.09   0.02
    57   6    -0.01  -0.07  -0.00     0.03   0.05  -0.08    -0.06   0.11  -0.06
    58   6    -0.06   0.10  -0.11    -0.16  -0.08   0.02     0.06  -0.02  -0.00
    59   6    -0.02  -0.12   0.10     0.02  -0.02  -0.13    -0.17   0.01   0.02
    60   6     0.03  -0.13   0.10     0.00   0.00  -0.09    -0.16   0.04  -0.00
    61   6     0.00   0.01  -0.00     0.00   0.00   0.00     0.01  -0.00   0.00
    62   6     0.00   0.00   0.00    -0.00  -0.00   0.00     0.01  -0.00   0.00
    63   6    -0.00   0.00  -0.01    -0.00  -0.00   0.00    -0.00  -0.01  -0.01
    64   1     0.00   0.01  -0.01     0.01  -0.00   0.00     0.01  -0.01  -0.01
    65   1    -0.02   0.01   0.01    -0.01   0.01   0.01    -0.02  -0.01   0.01
    66   1    -0.01  -0.00  -0.02    -0.01  -0.02  -0.01    -0.01  -0.02  -0.02
    67   6    -0.01  -0.00   0.00     0.00   0.00   0.00     0.00   0.01  -0.01
    68   1    -0.01  -0.00   0.01     0.00   0.00  -0.00    -0.01   0.01  -0.02
    69   1    -0.01  -0.01  -0.01     0.01   0.00   0.01     0.01   0.01  -0.00
    70   1    -0.01  -0.00   0.01     0.01   0.01  -0.00     0.00   0.03  -0.00
    71   6    -0.02   0.00  -0.00     0.01  -0.00   0.00     0.04  -0.00   0.00
[...]
 80,-0.00031810,0.00064758,0.00047473,-0.01147022,0.00284019,0.00101683
 ,-0.00335860,0.00244433,0.00011545,0.00187111,0.00021251,-0.03639264,0
 .69929087,-0.00000499,0.00000095,-0.00000200,0.00000771,-0.00001609,0.
 00002369,-0.00004931,-0.00001544,0.00006740,0.00001884,0.00000916,0.00
 002526,0.00000047,-0.00000057,-0.00000113,0.00001097,-0.00000317,-0.00
 000413,0.00008275,-0.00002167,0.00001053,-0.00014597,0.00009300,-0.000
 03002,-0.00007023,-0.00000453,0.00006900,0.00038401,-0.00016178,0.0005
 0576,0.00047247,0.00006496,-0.00000092,0.00001316,0.00000548,0.0000193
 4,-0.00000497,0.00000177,0.00000054,0.00000379,0.00000013,0.00000013,-
 0.00000150,0.00000002,0.00000005,0.,0.,0.,-0.00000002,0.,0.,0.,0.,0.,-
 0.00002821,0.00000233,0.00000380,0.00005248,-0.00001726,0.00002129,-0.
 00002005,-0.00000254,0.00000890,-0.00002454,0.00000005,0.00001097,0.,0
 .,0.,0.,0.,0.,0.,0.,0.,0.,0.,0.,0.,0.,0.,-0.00000006,-0.00000002,0.000
 00001,-0.00015861,-0.00006015,-0.00009435,0.00005728,0.00007726,0.0000
 2520,-0.00013073,-0.00011212,-0.00007656,0.00011033,0.00019397,0.00023
 334,0.00016304,0.00035636,-0.00058959,-0.00008440,-0.00005858,0.000105
 26,-0.00000933,-0.00000460,0.00000563,0.00000076,0.00000026,-0.0000003
 7,-0.00001051,-0.00000596,-0.00000626,-0.00000142,0.00000036,-0.000000
 13,0.00001842,0.00001739,0.00000919,-0.00000915,-0.00001239,0.00008616
 ,0.00256486,0.00059711,-0.00116070,-0.00004853,-0.00068294,0.00086569,
 0.00027347,0.00048175,-0.00030594,-0.00006577,-0.00010219,-0.00001054,
 -0.00002631,-0.00001958,0.00001952,-0.00001194,-0.00000275,0.00000589,
 0.,0.,0.,0.,0.,0.,0.00000003,0.,-0.00000001,-0.00000012,0.,0.00000005,
 0.00003628,-0.00001192,-0.00001944,-0.00008554,-0.00000452,0.00009557,
 0.00005225,-0.00003939,-0.00008896,-0.00048120,-0.00011429,0.00023558,
 -0.00071751,0.00042225,-0.00008174,0.00029990,0.00009079,0.00007182,-0
 .00053364,-0.00005097,-0.00028541,-0.00001884,-0.00003171,-0.00001618,
 0.00063425,-0.00008131,-0.00004897,-0.00076009,-0.00062565,-0.00055504
 ,-0.08301077,0.16400896,-0.36905444,0.00062838,0.01720104,0.01426133,-
 0.01063300,0.01041197,-0.03550677,-0.00071932,0.00093336,-0.00307780,-
 0.00213945,-0.00063245,0.00048181,0.00148601,-0.00034965,-0.00172852,-
 0.00012015,-0.00127769,0.00191577,-0.00002756,-0.00004920,0.00028850,-
 0.00005995,-0.00064042,-0.00072397,-0.00034503,-0.00051877,-0.00089352
 ,-0.00173639,-0.00362350,-0.00789172,0.00075178,-0.00349244,0.00183548
 ,-0.00005000,0.00107526,0.00054934,0.15994789,-0.05204332,0.75601333,0
 .00020361,-0.00002151,0.00002343,-0.00021271,0.00000771,-0.00010536,0.
 00007919,0.00014716,0.00024944,-0.00002190,-0.00007345,-0.00005279,-0.
 00000071,0.00000839,0.00001056,0.00003650,-0.00000232,-0.00000332,0.00
 018661,-0.00003417,-0.00003702,-0.00019514,0.00005580,0.00005636,0.000
 36355,0.00032333,-0.00007774,-0.00029717,-0.00006902,-0.00014483,-0.00
 005338,-0.00019926,-0.00053813,0.00000900,0.00004738,0.00002496,-0.000
 00267,-0.00001888,0.00000177,0.00000257,0.00000203,-0.00000015,0.00000
 305,0.00000114,-0.00000026,0.,0.,0.,-0.00000003,0.,0.00000001,0.,0.,0.
 ,0.00001608,-0.00000051,-0.00000532,0.00012330,-0.00004373,-0.00022285
 ,-0.00001352,-0.00001040,0.00005497,0.00001351,0.00000253,-0.00001597,
 0.,0.,0.,0.,0.,0.,0.,0.,0.,0.,0.,0.,0.,0.,0.,0.,0.,0.,-0.00003374,-0.0
 0009029,-0.00003510,0.00000697,0.00001005,0.00000178,-0.00004339,-0.00
 005580,0.00001514,0.00006819,0.00026578,-0.00018256,-0.00003866,0.0001
 0326,0.00012697,-0.00000097,0.00000582,-0.00002218,0.00000106,0.000000
 94,-0.00000024,0.,0.,0.,-0.00000668,-0.00000571,0.00000245,-0.00000761
 ,-0.00000492,-0.00000006,0.00001084,0.00002411,-0.00000224,-0.00003986
 ,-0.00001007,0.00000133,-0.00138801,-0.00093034,0.00132827,0.00000789,
 -0.00002977,0.00010881,0.00006197,-0.00010262,-0.00003977,-0.00000215,
 0.00002564,-0.00002325,0.00000011,0.00000136,-0.00000061,0.00000120,0.
 00000064,-0.00000054,0.,0.,0.,0.,0.,0.,0.,0.,0.,-0.00000003,0.,0.00000
 001,0.00000006,-0.00000709,0.00000412,0.00003309,0.00000773,-0.0000336
 1,-0.00002095,0.00005147,-0.00000400,-0.00006756,0.00000007,0.00043730
 ,0.00155672,0.00006562,-0.00046741,0.00014275,0.00007684,0.00006748,0.
 00088888,0.00026054,0.00025690,0.00000733,0.00000789,-0.00001322,0.000
 16519,-0.00013807,-0.00010432,-0.00121151,-0.00164455,-0.00039835,0.00
 159897,0.00757500,0.00012285,0.00482699,0.00045498,-0.00231233,-0.0020
 1875,0.00035308,0.00189729,-0.00037904,0.00010866,-0.00011591,0.000413
 14,-0.00007297,0.00063743,-0.00001821,0.00027280,-0.00078424,0.0003180
 5,0.00001903,-0.00000457,0.00000029,0.00001047,-0.00002837,0.00006140,
 -0.00008127,-0.00001815,0.00012073,0.00002746,-0.00009954,0.00073072,-
 0.00035200,-0.00009009,0.00017975,-0.00008022,-0.00011981,0.00000257,0
 .00002603,-0.00001099,-0.03559531,0.00781579,-0.00404985,0.02380984,0.
 00000186,-0.00000191,-0.00000212,0.00002252,-0.00001367,-0.00000070,-0
 .00001762,0.00000640,0.00001350,0.00001124,-0.00000417,0.00000333,-0.0
 0000827,-0.00000120,-0.00000118,0.00000631,-0.00000127,-0.00000185,-0.
 00000558,0.00000147,0.00000181,0.00002452,-0.00001761,-0.00001486,-0.0
 0002965,0.00002616,0.00001367,0.00042072,0.00001054,-0.00008907,-0.000
 07114,0.00002596,-0.00009607,0.00001050,0.00001548,0.00001390,0.000012
 61,-0.00000222,0.00000671,0.00000072,0.00000056,-0.00000004,0.00000085
 ,0.00000032,-0.00000007,0.,0.,0.,0.,0.,0.,0.,0.,0.,0.00000002,-0.00000
 002,0.00000008,0.00000940,-0.00001258,-0.00000094,0.00000873,-0.000002
 01,-0.00000634,-0.00000166,-0.00000003,0.00000088,0.,0.,0.,0.,0.,0.,0.
 ,0.,0.,0.,0.,0.,0.,0.,0.,0.,0.,0.,-0.00006259,-0.00002708,-0.00005411,
 0.00000686,0.00001009,0.00000092,-0.00006055,-0.00006492,0.00002163,-0
 .00003888,0.00014066,-0.00011969,0.00006880,0.00015728,0.00009797,0.00
 000030,0.00001498,-0.00002328,0.00000089,0.00000079,-0.00000020,0.,0.,
 0.,-0.00000693,-0.00000593,0.00000254,-0.00000789,-0.00000509,-0.00000
 007,0.00000574,0.00000825,0.00000026,-0.00006727,-0.00004698,-0.000004
 40,-0.00101109,-0.00045514,0.00084472,0.00009678,-0.00000720,0.0001204
 5,0.00001810,-0.00006946,-0.00008192,-0.00000982,0.00001147,-0.0000078
 2,-0.00000066,-0.00000030,0.00000064,0.00000101,0.00000054,-0.00000046
 ,0.,0.,0.,0.,0.,0.,0.,0.,0.,-0.00000002,0.,0.,0.00000697,-0.00000135,-
 0.00000407,0.00000474,0.00000145,-0.00000623,-0.00000444,0.00003637,-0
 .00000412,-0.00001926,0.00002444,0.00002557,0.00050552,0.00002597,-0.0
 0008396,0.00018302,0.00010670,0.00016110,-0.00013164,0.00023359,-0.000
 01913,0.00000832,0.00000952,-0.00001427,0.00007294,-0.00023582,-0.0000
 0753,-0.00093274,-0.00072454,-0.00010263,-0.00021545,-0.01515472,-0.00
 129450,0.00130787,0.00161930,0.00357273,-0.00107233,0.00216259,-0.0019
 5121,0.00057974,0.00148451,0.00196847,0.00017619,0.00011433,-0.0009800
 1,-0.00041852,0.00008730,-0.00099891,0.00001184,-0.00087616,0.00014333
 ,0.00003189,-0.00009960,0.00012055,0.00043969,-0.00040514,0.00068679,-
 0.00002115,-0.00032732,0.00054968,-0.00021696,0.00209530,-0.00062425,0
 .00007193,-0.00124513,-0.00038260,-0.00002612,-0.00034632,-0.00017257,
 0.00750096,-0.32335943,-0.01647322,-0.00877673,0.33847931,-0.00000468,
 -0.00000160,0.00000040,0.00001783,-0.00001390,-0.00001705,-0.00006145,
 0.00002106,-0.00001659,0.00001988,-0.00000688,0.00000901,-0.00000988,-
 0.00000194,-0.00000187,0.00000748,-0.00000175,-0.00000250,-0.00002252,
 0.00000471,0.00000351,0.00001071,-0.00000838,-0.00002173,-0.00002941,-
 0.00001168,0.00004665,0.00001978,-0.00004636,-0.00009306,0.00008442,0.
 00002381,-0.00007135,-0.00000104,0.00001760,0.00000768,-0.00000337,-0.
 00000527,-0.00000055,0.00000089,0.00000070,-0.00000005,0.00000106,0.00
 000040,-0.00000009,0.,0.,0.,0.,0.,0.,0.,0.,0.,-0.00000272,0.00000017,0
 .00000059,0.00000935,-0.00000297,0.00000361,-0.00001889,0.00000400,0.0
 0000826,0.00000362,-0.00000031,-0.00000046,0.,0.,0.,0.,0.,0.,0.,0.,0.,
 0.,0.,0.,0.,0.,0.,0.,0.,0.,0.00000841,-0.00004700,0.00000121,-0.000004
 36,-0.00000705,-0.00000306,-0.00001229,-0.00001240,0.00000309,0.000084
 58,0.00008889,-0.00000816,0.00004766,-0.00007277,-0.00007767,0.0000058
 8,-0.00000129,0.00000888,-0.00000088,-0.00000078,0.00000020,0.,0.,0.,-
 0.00000044,-0.00000037,0.00000017,-0.00000052,-0.00000034,0.,0.0000034
 6,0.00000876,-0.00000084,-0.00000866,-0.00000377,-0.00000302,0.0012456
 2,0.00049206,-0.00063788,-0.00037801,-0.00013514,0.00013863,-0.0000904
 7,0.00004152,0.00009002,0.00000994,-0.00001201,0.00001618,0.00000009,-
 0.00000056,0.00000015,-0.00000100,-0.00000054,0.00000045,0.,0.,0.,0.,0
 .,0.,0.,0.,0.,0.00000002,0.,0.,-0.00000365,0.00000360,0.00000046,-0.00
 001714,-0.00000550,0.00002084,0.00001463,-0.00002854,-0.00001532,0.000
 03453,-0.00001760,-0.00008017,-0.00073505,0.00002430,0.00027492,0.0000
 6630,0.00005858,0.00000621,0.00026098,0.00006549,0.00020918,0.00000127
 ,0.00000194,-0.00000131,-0.00007438,-0.00008916,-0.00000919,-0.0007125
 6,-0.00012003,0.00007255,-0.00057420,0.02512027,0.00344990,-0.00236917
 ,0.00123143,-0.00373524,0.00184054,0.00246486,0.00189950,-0.00024535,0
 .00006297,-0.00091227,-0.00002320,0.00050166,-0.00088447,-0.00017287,0
 .00016763,0.00061554,-0.00000884,-0.00008623,-0.00003054,-0.00003609,0
 .00006544,-0.00012552,-0.00013241,-0.00010308,-0.00012915,0.00000390,-
 0.00007714,0.00000616,-0.00006159,-0.00017997,0.00059534,-0.00002036,-
 0.00048180,0.00005862,-0.00001693,0.00010774,-0.00008344,-0.00417632,-
 0.01914235,-0.05320980,0.00670050,0.01416175,0.05199302,0.00006676,-0.
 00002028,-0.00000643,-0.00021870,0.00011979,0.00003115,0.00007986,-0.0
 0016734,-0.00009131,0.00003710,0.00001892,0.00003703,0.00004142,0.0000
 2034,0.00001073,-0.00002584,0.00000185,0.00000704,0.00006316,-0.000015
 38,-0.00001673,-0.00012056,0.00003906,0.00005465,0.00023929,-0.0000337
 3,-0.00014453,-0.00083542,0.00045834,-0.00002770,-0.00030958,0.0001920
 6,0.00022098,-0.00025765,-0.00008425,0.00000785,0.00016927,0.00011633,
 0.00001449,-0.00004170,-0.00000888,0.00000087,0.00005519,-0.00000085,-
 0.00000845,-0.00000007,0.,0.00000003,0.00000006,0.,-0.00000002,0.,0.,0
 .,0.00000618,-0.00000025,-0.00000182,0.00001116,-0.00003923,-0.0000711
 4,0.00000107,-0.00000271,0.00001198,0.00000576,0.00000075,-0.00000552,
 0.,0.,0.,0.,0.,0.,0.,0.,0.,0.,0.,0.,0.,0.,0.,0.00000281,0.00000443,-0.
 00000300,0.00000420,0.00033708,-0.00043712,-0.00001676,0.00003649,-0.0
 0005056,0.00000307,-0.00009749,0.00002514,0.00005488,-0.00033399,-0.00
 001535,0.00026117,0.00024251,-0.00013823,-0.00018715,-0.00004881,0.000
 08963,0.00001021,0.00000308,-0.00000939,-0.00000348,-0.00000100,0.0000
 0252,0.00000615,-0.00000922,0.00002687,0.00006955,0.00006323,-0.000027
 21,-0.00011984,-0.00018078,0.00006964,0.00003779,-0.00004824,-0.000069
 58,-0.00030432,0.00014832,-0.00039747,-0.00019579,0.00028795,0.0001801
 3,0.00003433,-0.00013628,0.00003014,0.00001301,0.00002298,-0.00007915,
 -0.00001096,0.00000334,0.00001395,0.00000809,0.00000098,-0.00000390,0.
 ,0.,0.,0.,0.,0.,-0.00000004,0.,0.00000001,-0.00000001,0.,0.,0.00000853
 ,-0.00000399,-0.00000470,0.00002679,-0.00000137,-0.00002679,-0.0000296
 7,0.00002710,-0.00001504,0.00006194,0.00003686,0.00006319,-0.00007506,
 -0.00009455,0.00048619,-0.00045848,-0.00035459,0.00011908,-0.00053505,
 -0.00019581,0.00048646,-0.00002828,-0.00000858,0.00006789,-0.00134329,
 0.00018439,0.00047689,0.00123059,-0.00068556,-0.00000531,-0.00127466,-
 0.00373863,-0.00788587,-0.00146331,-0.00122650,0.00098968,0.00539896,0
 .00050366,-0.00195540,0.00071353,0.00035135,0.00026686,0.00040987,-0.0
 0061252,-0.00094805,0.00044341,0.00058172,0.00009069,0.00030119,0.0003
 1367,-0.00034929,-0.00020790,0.00012018,0.00004948,0.00040412,-0.00009
 565,0.00054928,-0.00001214,-0.00008792,0.00009741,0.00083325,-0.001538
 72,0.00045879,-0.00127165,0.00124106,-0.00043580,0.00023930,-0.0000600
 1,0.00000086,-0.04678375,-0.02379991,-0.06167665,0.00561798,0.00160487
 ,-0.00047260,0.03916011,-0.00001674,-0.00000047,-0.00000361,0.00005278
 ,-0.00000630,0.00001435,-0.00004150,-0.00003896,-0.00003075,0.00006639
 ,-0.00001212,0.00002985,-0.00001592,0.00000013,-0.00000126,0.00000316,
 -0.00000212,-0.00000186,-0.00002219,0.00000491,0.00000560,0.00005711,-
 0.00001994,-0.00001581,-0.00013887,0.00001394,0.00001148,0.00014227,-0
 .00012255,-0.00007400,0.00003657,0.00016711,0.00012155,-0.00009686,0.0
 0003426,-0.00000940,0.00003753,0.00001576,0.00000240,-0.00001851,-0.00
 000242,-0.00000007,0.00001785,-0.00000033,-0.00000223,-0.00000002,0.,0
 .,0.,0.,0.,0.,0.,0.,-0.00000241,0.00000009,0.00000073,0.00001247,-0.00
 000376,0.00001536,0.00000047,0.00000139,-0.00000582,-0.00000248,-0.000
 00030,0.00000230,0.,0.,0.,0.,0.,0.,0.,0.,0.,0.,0.,0.,0.,0.,0.,-0.00000
 137,0.00000040,-0.00000028,0.00009189,-0.00002819,-0.00011722,-0.00003
 109,0.00000191,-0.00002715,0.00009861,0.00004912,-0.00000973,-0.000095
 50,-0.00020207,-0.00005791,0.00033178,-0.00003671,-0.00019786,-0.00015
 783,-0.00005337,0.00009904,0.00001009,0.00000351,-0.00000867,-0.000003
 57,-0.00000111,0.00000229,0.00001131,0.00000236,0.00001236,0.00003496,
 0.00002548,-0.00000800,-0.00005135,-0.00006174,0.00002697,0.00009692,-
 0.00001342,-0.00001624,-0.00005294,-0.00028341,0.00006994,0.00010704,0
 .00029153,-0.00009225,0.00005511,-0.00004291,-0.00007674,0.00000883,0.
 00000709,-0.00004287,-0.00000951,0.00000228,0.00001207,0.00000693,0.00
 000114,-0.00000320,0.,0.,0.,0.,0.,0.,-0.00000003,0.,0.00000001,0.,0.,0
 .,0.00000637,-0.00000122,-0.00000477,-0.00000199,-0.00000350,0.0000025
 1,0.00000215,0.00003758,-0.00000665,-0.00006534,0.00003631,0.00004922,
 0.00002602,-0.00002691,-0.00004848,-0.00045004,0.00008419,-0.00017569,
 0.00031324,-0.00013441,-0.00006680,-0.00002274,-0.00000104,0.00005145,
 -0.00044094,-0.00024167,0.00013884,-0.00041270,-0.00027306,0.00021532,
 0.00337183,0.01017774,0.01532796,-0.00064514,0.00081535,-0.00084783,0.
 00066474,-0.00001708,0.00192015,0.00008031,0.00002646,0.00025748,-0.00
 056659,0.00008687,-0.00111036,0.00012630,0.00014917,-0.00120258,0.0000
 2993,0.00023121,0.00048937,-0.00023096,0.00066655,-0.00089625,-0.00069
 934,0.00016410,-0.00103014,0.00029454,0.00015544,-0.00133564,0.0013998
 9,-0.00209894,0.00454227,-0.00103351,-0.00281204,-0.00118016,0.0002313
 0,-0.00126915,0.00055817,-0.02383817,-0.11730271,-0.11468118,-0.005310
 91,-0.00339730,-0.02401490,0.02665036,0.11525782,-0.00000864,-0.000002
 69,-0.00000353,0.00000416,0.00002393,0.00001146,0.00002973,-0.00006510
 ,-0.00000931,0.00000108,0.00001489,0.00000677,-0.00000406,0.00000134,-
 0.00000107,-0.00000468,-0.00000051,0.00000018,-0.00001892,0.00000429,0
 .00000504,0.00003506,0.00000088,-0.00000177,-0.00004526,-0.00006221,0.
 00000487,0.00024371,-0.00001368,0.00018692,-0.00005352,0.00011185,0.00
 006584,-0.00005441,-0.00002745,0.00000110,0.00003665,0.00001998,0.0000
 0709,-0.00000433,-0.00000126,0.00000027,0.00001027,0.00000015,-0.00000
 175,-0.00000002,0.,0.,0.,0.,0.,0.,0.,0.,-0.00000303,0.00000017,0.00000
 071,0.00000975,0.00001933,0.00001721,-0.00000867,0.00000135,0.00000183
 ,-0.00000102,-0.00000028,0.00000154,0.,0.,0.,0.,0.,0.,0.,0.,0.,0.,0.,0
 .,0.,0.,0.,0.00000152,0.00000124,-0.00000083,-0.00005885,0.00001244,-0
 .00021027,0.00003424,0.00001139,0.00000729,0.00002089,-0.00002822,-0.0
 0004430,0.00031079,0.00014757,0.00026361,-0.00032897,-0.00015754,-0.00
 013181,0.00019633,0.00006559,-0.00008891,-0.00000463,-0.00000075,0.000
 00518,0.00000025,-0.00000026,-0.00000152,-0.00002183,-0.00001655,0.000
 00041,0.00000008,0.00000574,-0.00000407,-0.00002990,-0.00003682,0.0000
 0143,0.00007535,0.00010349,0.00001598,0.00132382,0.00040936,-0.0006384
 5,-0.00012026,-0.00038462,0.00013230,-0.00002398,0.00015269,0.00006662
 ,0.00000095,-0.00001881,0.00005364,0.00000849,-0.00000282,-0.00001059,
 -0.00000932,-0.00000095,0.00000502,0.,0.,0.,0.,0.,0.,0.00000004,0.,-0.
 00000002,0.00000001,0.,0.,-0.00001148,0.00000399,0.00000687,-0.0000243
 7,0.00000172,0.00002538,0.00003333,-0.00004158,-0.00001203,-0.00006311
 ,-0.00001763,0.00002812,-0.00012883,0.00004401,-0.00022657,-0.00006383
 ,-0.00014291,0.00009213,0.00003900,-0.00000633,-0.00020589,0.00000089,
 -0.00001520,-0.00003583,0.00019539,-0.00029715,-0.00033537,-0.00196624
 ,0.00010096,0.00067462,-0.00412420,-0.01284697,-0.02146252,0.00079321,
 -0.00478494,0.00138173,-0.00262918,0.00090374,-0.00328173,-0.00009266,
 0.00088603,0.00070282,-0.00027110,0.00023827,-0.00113393,-0.00041476,-
 0.00026870,-0.00140875,-0.00019774,0.00112331,-0.00106193,0.00003249,0
 .00062127,-0.00018363,0.00073081,-0.00022347,0.00099627,-0.00049679,-0
 .00024156,0.00151784,-0.00002977,-0.00276281,0.00026585,-0.00039670,0.
 00086034,-0.00104872,-0.00012075,0.00049455,0.00005506,-0.06070992,-0.
 10843271,-0.30240628,-0.00196509,0.00109144,0.00063140,0.07034250,0.12
 342523,0.32671097\\-0.00000021,-0.00000021,0.00000017,0.00000013,0.000
 00024,-0.00000013,0.00000068,-0.00000023,-0.00000009,-0.00000025,-0.00
 000039,-0.00000002,0.00000026,-0.00000005,0.00000017,-0.00000009,0.000
 00002,0.00000006,-0.00000010,-0.00000001,0.00000011,-0.00000002,0.0000
 0014,-0.00000044,0.00000070,-0.00000015,0.00000047,-0.00000181,0.00000
 167,0.00000008,-0.00000077,0.00000053,-0.00000045,-0.00000048,-0.00000
 002,-0.00000010,0.00000030,0.00000045,-0.00000037,-0.00000030,-0.00000
 019,0.00000034,0.00000003,0.00000014,0.00000004,0.00000005,-0.00000024
 ,0.00000015,0.00000023,0.00000003,0.00000004,0.00000005,-0.00000007,0.
 00000008,-0.00000022,-0.00000018,-0.00000006,0.00000053,-0.00000007,-0
 .00000003,0.00000003,0.00000009,0.00000014,0.00000011,0.00000018,-0.00
 000021,0.00000002,-0.00000059,0.00000017,0.00000003,0.00000012,-0.0000
 0026,0.00000057,-0.00000034,0.00000023,-0.00000027,0.00000028,-0.00000
 013,0.00000043,-0.00000004,0.00000014,0.00000007,0.00000007,0.00000009
 ,0.00000036,-0.00000025,-0.00000013,-0.00000006,0.00000021,0.00000076,
 -0.00000023,-0.00000031,0.00000013,0.00000244,0.00000049,0.00000259,-0
 .00000207,0.00000072,0.00000052,-0.00000098,0.00000095,-0.00000058,-0.
 00000023,0.00000025,0.00000011,0.00000011,0.00000017,0.00000002,-0.000
 00045,0.00000003,0.00000029,-0.00000018,0.00000007,0.00000006,-0.00000
 122,-0.00000033,0.00000009,0.00000110,0.00000016,-0.00000040,0.0000025
 3,0.00000066,-0.00000363,0.00000124,-0.00000530,0.00000286,-0.00000148
 ,0.00000096,-0.00000032,-0.00000054,-0.00000253,0.00000007,0.00000020,
 -0.00000026,0.00000007,0.00000023,-0.00000027,-0.00000038,0.00000009,-
 0.00000005,-0.00000028,-0.00000011,0.00000043,0.00000011,0.00000019,0.
 00000004,-0.00000026,-0.00000041,0.00000026,-0.00000024,-0.00000021,-0
 .00000049,0.00000002,-0.00000035,0.00000022,0.00000020,0.00000056,-0.0
 0000026,-0.00000041,-0.00000046,-0.00000016,-0.00000097,-0.00000152,0.
 00000262,0.00000115,-0.00000152,0.00000067,-0.00000047,0.00000190,-0.0
 0000110,0.00000013,0.00000092,0.00000094,0.00000019,-0.00000151,0.0000
 0373,-0.00000034,-0.00000035,-0.00000261,-0.00000070,0.00000024,-0.000
 00077,-0.00000478,0.00000709,0.00000255,0.00000054,0.00000054,-0.00000
 045,0.00000193,-0.00000048,-0.00000139,0.00000020,0.00000284,-0.000000
 48,-0.00000122,-0.00000192,-0.00000062,-0.00000002,-0.00000261,0.00000
 289,-0.00000042,-0.00000038,0.00000143,0.00000068,-0.00000484,0.000001
 99,-0.00000279,0.00000235,-0.00000192,0.00000182,0.00000110,-0.0000030
 5,-0.00000021,-0.00000160,-0.00000079,0.00000018,0.00000043,0.00000026
 ,-0.00000070,-0.00000232,0.00000080,0.00000534,-0.00000066,0.00000087,
 -0.00000002,0.00000254,-0.00000216,-0.00000096\\\@


 THE CHYMISTS ARE A STRANGE CLASS OF MORTALS IMPELLED
 BY AN ALMOST INSANE IMPULSE TO SEEK THEIR PLEASURE
 AMONG SMOKE AND VAPOR, SOOT AND FLAME, POISONS AND
 POVERTY; YET AMONG ALL THESE EVILS I SEEM TO LIVE
 SO SWEETLY, THAT I MAY DIE IF I WOULD CHANGE PLACES
 WITH THE PERSIAN KING.
   --  JOHANN JOACHIM BECHER, 1635-1682
 ACTA LABORATORII CHYMICA MONACENSIS, 1669
 Job cpu time:       0 days  0 hours  0 minutes  0.7 seconds.
 Elapsed time:       0 days  0 hours  0 minutes  9.7 seconds.
 File lengths (MBytes):  RWF=     22 Int=      0 D2E=      0 Chk=      3 Scr=      2
 Normal termination of Gaussian 16 at Tue May 27 10:46:47 2025.
