 Entering Gaussian System, Link 0=/mlatom/software/Gaussian/g16-avx2/g16
 Input=gaussian.com
 Output=gaussian.log
 Initial command:
 /mlatom/software/Gaussian/g16-avx2/l1.exe "/mlatom/home/huangyh/projects/delta_learning/paper/revision1/Starting_from_ub3lyp_d4/da/b3lyp/AL/p/Gau-147929.inp" -scrdir="/mlatom/home/huangyh/projects/delta_learning/paper/revision1/Starting_from_ub3lyp_d4/da/b3lyp/AL/p/"
 Entering Link 1 = /mlatom/software/Gaussian/g16-avx2/l1.exe PID=    147930.
  
 Copyright (c) 1988,1990,1992,1993,1995,1998,2003,2009,2016,
            Gaussian, Inc.  All Rights Reserved.
  
 This is part of the Gaussian(R) 16 program.  It is based on
 the Gaussian(R) 09 system (copyright 2009, Gaussian, Inc.),
 the Gaussian(R) 03 system (copyright 2003, Gaussian, Inc.),
 the Gaussian(R) 98 system (copyright 1998, Gaussian, Inc.),
 the Gaussian(R) 94 system (copyright 1995, Gaussian, Inc.),
 the Gaussian 92(TM) system (copyright 1992, Gaussian, Inc.),
 the Gaussian 90(TM) system (copyright 1990, Gaussian, Inc.),
 the Gaussian 88(TM) system (copyright 1988, Gaussian, Inc.),
 the Gaussian 86(TM) system (copyright 1986, Carnegie Mellon
 University), and the Gaussian 82(TM) system (copyright 1983,
 Carnegie Mellon University). Gaussian is a federally registered
 trademark of Gaussian, Inc.
  
 This software contains proprietary and confidential information,
 including trade secrets, belonging to Gaussian, Inc.
  
 This software is provided under written license and may be
 used, copied, transmitted, or stored only in accord with that
 written license.
  
 The following legend is applicable only to US Government
 contracts under FAR:
  
                    RESTRICTED RIGHTS LEGEND
  
 Use, reproduction and disclosure by the US Government is
 subject to restrictions as set forth in subparagraphs (a)
 and (c) of the Commercial Computer Software - Restricted
 Rights clause in FAR 52.227-19.
  
 Gaussian, Inc.
 340 Quinnipiac St., Bldg. 40, Wallingford CT 06492
  
  
 ---------------------------------------------------------------
 Warning -- This program may not be used in any manner that
 competes with the business of Gaussian, Inc. or will provide
 assistance to any competitor of Gaussian, Inc.  The licensee
 of this program is prohibited from giving any competitor of
 Gaussian, Inc. access to this program.  By using this program,
 the user acknowledges that Gaussian, Inc. is engaged in the
 business of creating and licensing software in the field of
 computational chemistry and represents and warrants to the
 licensee that it is not a competitor of Gaussian, Inc. and that
 it will not use this program in any manner prohibited above.
 ---------------------------------------------------------------
  

 Cite this work as:
 Gaussian 16, Revision A.03,
 M. J. Frisch, G. W. Trucks, H. B. Schlegel, G. E. Scuseria, 
 M. A. Robb, J. R. Cheeseman, G. Scalmani, V. Barone, 
 G. A. Petersson, H. Nakatsuji, X. Li, M. Caricato, A. V. Marenich, 
 J. Bloino, B. G. Janesko, R. Gomperts, B. Mennucci, H. P. Hratchian, 
 J. V. Ortiz, A. F. Izmaylov, J. L. Sonnenberg, D. Williams-Young, 
 F. Ding, F. Lipparini, F. Egidi, J. Goings, B. Peng, A. Petrone, 
 T. Henderson, D. Ranasinghe, V. G. Zakrzewski, J. Gao, N. Rega, 
 G. Zheng, W. Liang, M. Hada, M. Ehara, K. Toyota, R. Fukuda, 
 J. Hasegawa, M. Ishida, T. Nakajima, Y. Honda, O. Kitao, H. Nakai, 
 T. Vreven, K. Throssell, J. A. Montgomery, Jr., J. E. Peralta, 
 F. Ogliaro, M. J. Bearpark, J. J. Heyd, E. N. Brothers, K. N. Kudin, 
 V. N. Staroverov, T. A. Keith, R. Kobayashi, J. Normand, 
 K. Raghavachari, A. P. Rendell, J. C. Burant, S. S. Iyengar, 
 J. Tomasi, M. Cossi, J. M. Millam, M. Klene, C. Adamo, R. Cammi, 
 J. W. Ochterski, R. L. Martin, K. Morokuma, O. Farkas, 
 J. B. Foresman, and D. J. Fox, Gaussian, Inc., Wallingford CT, 2016.
 
 ******************************************
 Gaussian 16:  ES64L-G16RevA.03 25-Dec-2016
                26-May-2025 
 ******************************************
 %nproc=1
 Will use up to    1 processors via shared memory.
 ----------------------------------------------------------------------
 #p Freq external='/mlatom/software/miniconda3/bin/python /mlatom/softw
 are/mlatom_xacs/mlatom/interfaces/gaussian_interface.py model_predict_
 kwargs'
 ----------------------------------------------------------------------
 1/10=4,18=10,30=1,38=1/1,3;
 2/12=2,17=6,18=5,40=1/2;
 3/11=9,25=1,30=1,41=9900000,43=2,71=2,140=1/1;
 4/20=17,22=2,24=3,113=1,114=1/2;
 6/7=2,8=2,9=2,10=2/1;
 7/8=1,25=1,44=-1/16;
 1/10=4,18=10,30=1/3;
 99//99;
 Leave Link    1 at Mon May 26 08:18:05 2025, MaxMem=           0 cpu:               0.1 elap:               0.1
 (Enter /mlatom/software/Gaussian/g16-avx2/l101.exe)
 ------------------------------------
 7759976e-1f1f-4c6b-97f0-479b581a5926
 ------------------------------------
 Symbolic Z-matrix:
 Charge =  0 Multiplicity = 1
 C                    -1.50042   0.04723   0.11501 
 C                    -0.66872   1.30982   0.04251 
 H                    -2.39608   0.1566   -0.5103 
 H                    -1.86735  -0.08479   1.14704 
 H                    -1.20327   2.25711   0.07609 
 C                     0.66872   1.30982  -0.04251 
 C                     1.50042   0.04724  -0.11501 
 H                     1.20325   2.25712  -0.07609 
 H                     2.39607   0.15662   0.5103 
 H                     1.86735  -0.08478  -1.14704 
 C                    -0.70036  -1.1952   -0.31402 
 C                     0.70037  -1.1952    0.31402 
 H                    -0.60555  -1.19763  -1.40808 
 H                    -1.24361  -2.10246  -0.03574 
 H                     0.60556  -1.19763   1.40808 
 H                     1.24362  -2.10246   0.03574 
 
 ITRead=  0  0  0  0  0  0  0  0  0  0  0  0  0  0  0  0
 MicOpt= -1 -1 -1 -1 -1 -1 -1 -1 -1 -1 -1 -1 -1 -1 -1 -1
 NAtoms=     16 NQM=       16 NQMF=       0 NMMI=      0 NMMIF=      0
                NMic=       0 NMicF=      0.
                    Isotopes and Nuclear Properties:
 (Nuclear quadrupole moments (NQMom) in fm**2, nuclear magnetic moments (NMagM)
  in nuclear magnetons)

  Atom         1           2           3           4           5           6           7           8           9          10
 IAtWgt=          12          12           1           1           1          12          12           1           1           1
 AtmWgt=  12.0000000  12.0000000   1.0078250   1.0078250   1.0078250  12.0000000  12.0000000   1.0078250   1.0078250   1.0078250
 NucSpn=           0           0           1           1           1           0           0           1           1           1
 AtZEff=  -0.0000000  -0.0000000  -0.0000000  -0.0000000  -0.0000000  -0.0000000  -0.0000000  -0.0000000  -0.0000000  -0.0000000
 NQMom=    0.0000000   0.0000000   0.0000000   0.0000000   0.0000000   0.0000000   0.0000000   0.0000000   0.0000000   0.0000000
 NMagM=    0.0000000   0.0000000   2.7928460   2.7928460   2.7928460   0.0000000   0.0000000   2.7928460   2.7928460   2.7928460
 AtZNuc=   6.0000000   6.0000000   1.0000000   1.0000000   1.0000000   6.0000000   6.0000000   1.0000000   1.0000000   1.0000000

  Atom        11          12          13          14          15          16
 IAtWgt=          12          12           1           1           1           1
 AtmWgt=  12.0000000  12.0000000   1.0078250   1.0078250   1.0078250   1.0078250
 NucSpn=           0           0           1           1           1           1
 AtZEff=  -0.0000000  -0.0000000  -0.0000000  -0.0000000  -0.0000000  -0.0000000
 NQMom=    0.0000000   0.0000000   0.0000000   0.0000000   0.0000000   0.0000000
 NMagM=    0.0000000   0.0000000   2.7928460   2.7928460   2.7928460   2.7928460
 AtZNuc=   6.0000000   6.0000000   1.0000000   1.0000000   1.0000000   1.0000000
 Leave Link  101 at Mon May 26 08:18:05 2025, MaxMem=   104857600 cpu:               0.2 elap:               0.5
 (Enter /mlatom/software/Gaussian/g16-avx2/l103.exe)

 GradGradGradGradGradGradGradGradGradGradGradGradGradGradGradGradGradGrad
 Berny optimization.
 Initialization pass.
 Trust Radius=3.00D-01 FncErr=1.00D-07 GrdErr=1.00D-07 EigMax=2.50D+02 EigMin=1.00D-04
 Number of steps in this run=      2 maximum allowed number of steps=      2.
 GradGradGradGradGradGradGradGradGradGradGradGradGradGradGradGradGradGrad

 Leave Link  103 at Mon May 26 08:18:06 2025, MaxMem=   104857600 cpu:               0.1 elap:               0.1
 (Enter /mlatom/software/Gaussian/g16-avx2/l202.exe)
                          Input orientation:                          
 ---------------------------------------------------------------------
 Center     Atomic      Atomic             Coordinates (Angstroms)
 Number     Number       Type             X           Y           Z
 ---------------------------------------------------------------------
      1          6           0       -1.500416    0.047234    0.115008
      2          6           0       -0.668723    1.309816    0.042512
      3          1           0       -2.396076    0.156604   -0.510300
      4          1           0       -1.867349   -0.084793    1.147038
      5          1           0       -1.203265    2.257113    0.076094
      6          6           0        0.668717    1.309819   -0.042513
      7          6           0        1.500415    0.047241   -0.115007
      8          1           0        1.203254    2.257119   -0.076095
      9          1           0        2.396075    0.156615    0.510301
     10          1           0        1.867350   -0.084784   -1.147037
     11          6           0       -0.700360   -1.195198   -0.314020
     12          6           0        0.700366   -1.195195    0.314020
     13          1           0       -0.605555   -1.197629   -1.408080
     14          1           0       -1.243614   -2.102461   -0.035743
     15          1           0        0.605561   -1.197628    1.408080
     16          1           0        1.243624   -2.102455    0.035742
 ---------------------------------------------------------------------
                    Distance matrix (angstroms):
                    1          2          3          4          5
     1  C    0.000000
     2  C    1.513632   0.000000
     3  H    1.097806   2.149243   0.000000
     4  H    1.103248   2.145137   1.756301   0.000000
     5  H    2.230108   1.088226   2.485718   2.659408   0.000000
     6  C    2.514770   1.340140   3.307822   3.129154   2.101369
     7  C    3.009634   2.514770   3.918017   3.598893   3.497134
     8  H    3.497134   2.101369   4.189973   4.050828   2.411327
     9  H    3.918017   3.307822   4.899626   4.317464   4.189973
    10  H    3.598893   3.129154   4.317465   4.383008   4.050829
    11  C    1.538763   2.530457   2.177463   2.174754   3.510493
    12  C    2.535089   2.867612   3.477760   2.918916   3.949538
    13  H    2.161078   2.897497   2.417834   3.059274   3.807267
    14  H    2.170221   3.461250   2.580067   2.420537   4.361195
    15  H    2.767102   3.126635   3.811030   2.724304   4.120834
    16  H    3.486718   3.911613   4.318440   3.870930   4.999474
                    6          7          8          9         10
     6  C    0.000000
     7  C    1.513632   0.000000
     8  H    1.088226   2.230108   0.000000
     9  H    2.149243   1.097806   2.485718   0.000000
    10  H    2.145137   1.103248   2.659408   1.756301   0.000000
    11  C    2.867612   2.535088   3.949538   3.477759   2.918916
    12  C    2.530457   1.538763   3.510493   2.177463   2.174754
    13  H    3.126634   2.767101   4.120833   3.811029   2.724303
    14  H    3.911612   3.486718   4.999473   4.318440   3.870930
    15  H    2.897498   2.161078   3.807268   2.417834   3.059274
    16  H    3.461251   2.170222   4.361196   2.580068   2.420537
                   11         12         13         14         15
    11  C    0.000000
    12  C    1.535079   0.000000
    13  H    1.098162   2.161265   0.000000
    14  H    1.093476   2.173597   1.763278   0.000000
    15  H    2.161265   1.098163   3.065544   2.514517   0.000000
    16  H    2.173597   1.093476   2.514517   2.488266   1.763278
                   16
    16  H    0.000000
 Stoichiometry    C6H10
 Framework group  C1[X(C6H10)]
 Deg. of freedom    42
 Full point group                 C1      NOp   1
 Largest Abelian subgroup         C1      NOp   1
 Largest concise Abelian subgroup C1      NOp   1
                         Standard orientation:                         
 ---------------------------------------------------------------------
 Center     Atomic      Atomic             Coordinates (Angstroms)
 Number     Number       Type             X           Y           Z
 ---------------------------------------------------------------------
      1          6           0       -1.500416    0.047234    0.115008
      2          6           0       -0.668723    1.309816    0.042512
      3          1           0       -2.396076    0.156604   -0.510300
      4          1           0       -1.867349   -0.084793    1.147038
      5          1           0       -1.203265    2.257113    0.076094
      6          6           0        0.668717    1.309819   -0.042513
      7          6           0        1.500415    0.047241   -0.115007
      8          1           0        1.203254    2.257119   -0.076095
      9          1           0        2.396075    0.156615    0.510301
     10          1           0        1.867350   -0.084784   -1.147037
     11          6           0       -0.700360   -1.195198   -0.314020
     12          6           0        0.700366   -1.195195    0.314020
     13          1           0       -0.605555   -1.197629   -1.408080
     14          1           0       -1.243614   -2.102461   -0.035743
     15          1           0        0.605561   -1.197628    1.408080
     16          1           0        1.243624   -2.102455    0.035742
 ---------------------------------------------------------------------
 Rotational constants (GHZ):           4.7005348           4.5193680           2.5330812
 Leave Link  202 at Mon May 26 08:18:06 2025, MaxMem=   104857600 cpu:               0.0 elap:               0.1
 (Enter /mlatom/software/Gaussian/g16-avx2/l301.exe)
 Standard basis: STO-3G (5D, 7F)
 Ernie: Thresh=  0.10000D-02 Tol=  0.10000D-05 Strict=F.
 There are    40 symmetry adapted cartesian basis functions of A   symmetry.
 There are    40 symmetry adapted basis functions of A   symmetry.
    40 basis functions,   120 primitive gaussians,    40 cartesian basis functions
    23 alpha electrons       23 beta electrons
       nuclear repulsion energy       235.9307074453 Hartrees.
 IExCor=    0 DFT=F Ex=HF Corr=None ExCW=0 ScaHFX=  1.000000
 ScaDFX=  1.000000  1.000000  1.000000  1.000000 ScalE2=  1.000000  1.000000
 IRadAn=      5 IRanWt=     -1 IRanGd=            0 ICorTp=0 IEmpDi=  4
 NAtoms=   16 NActive=   16 NUniq=   16 SFac= 1.00D+00 NAtFMM=   60 NAOKFM=F Big=F
 Integral buffers will be    131072 words long.
 Raffenetti 1 integral format.
 Two-electron integral symmetry is turned on.
 Leave Link  301 at Mon May 26 08:18:06 2025, MaxMem=   104857600 cpu:               0.1 elap:               0.2
 (Enter /mlatom/software/Gaussian/g16-avx2/l402.exe)
 External calculation of energy, first and second derivatives.
 Running external command "/mlatom/software/miniconda3/bin/python /mlatom/software/mlatom_xacs/mlatom/interfaces/gaussian_interface.py model_predict_kwargs R"
         input file       "/mlatom/home/huangyh/projects/delta_learning/paper/revision1/Starting_from_ub3lyp_d4/da/b3lyp/AL/p/Gau-147930.EIn"
         output file      "/mlatom/home/huangyh/projects/delta_learning/paper/revision1/Starting_from_ub3lyp_d4/da/b3lyp/AL/p/Gau-147930.EOu"
         message file     "/mlatom/home/huangyh/projects/delta_learning/paper/revision1/Starting_from_ub3lyp_d4/da/b3lyp/AL/p/Gau-147930.EMs"
         fchk file        "/mlatom/home/huangyh/projects/delta_learning/paper/revision1/Starting_from_ub3lyp_d4/da/b3lyp/AL/p/Gau-147930.EFC"
         mat. el file     "/mlatom/home/huangyh/projects/delta_learning/paper/revision1/Starting_from_ub3lyp_d4/da/b3lyp/AL/p/Gau-147930.EUF"
model loaded from /mlatom/home/huangyh/projects/delta_learning/paper/revision1/Starting_from_ub3lyp_d4/da/b3lyp/AL/da_energy_iteration37.npz
 Recovered energy= -234.648589626     dipole=      0.000000000000      0.000000000000      0.000000000000
 Energy=    -234.648590     NIter=   0.
 Dipole moment=       0.000000       0.000000       0.000000
 Leave Link  402 at Mon May 26 08:18:24 2025, MaxMem=   104857600 cpu:               0.1 elap:              18.0
 (Enter /mlatom/software/Gaussian/g16-avx2/l601.exe)
 Leave Link  601 at Mon May 26 08:18:24 2025, MaxMem=   104857600 cpu:               0.1 elap:               0.1
 (Enter /mlatom/software/Gaussian/g16-avx2/l716.exe)
 Dipole        = 0.00000000D+00 0.00000000D+00 0.00000000D+00
 Full mass-weighted force constant matrix:
 Low frequencies ---   -9.4452   -3.9608   -3.1148   -0.1851    0.2105    7.3621
 Low frequencies ---  202.1845  254.4546  389.6274
 Diagonal vibrational polarizability:
        0.0000000       0.0000000       0.0000000
 Harmonic frequencies (cm**-1), IR intensities (KM/Mole), Raman scattering
 activities (A**4/AMU), depolarization ratios for plane and unpolarized
 incident light, reduced masses (AMU), force constants (mDyne/A),
 and normal coordinates:
                      1                      2                      3
                      A                      A                      A
 Frequencies --    202.1844               254.4546               389.6274
 Red. masses --      1.7882                 1.7872                 1.8825
 Frc consts  --      0.0431                 0.0682                 0.1684
 IR Inten    --      0.0000                 0.0000                 0.0000
  Atom  AN      X      Y      Z        X      Y      Z        X      Y      Z
     1   6     0.02  -0.01   0.14    -0.01   0.04  -0.05    -0.06   0.02  -0.05
     2   6    -0.02   0.01  -0.09    -0.01   0.03  -0.08     0.01  -0.03   0.17
     3   1    -0.13  -0.05   0.36     0.03  -0.01  -0.11     0.11   0.11  -0.29
     4   1     0.28  -0.04   0.24    -0.10   0.17  -0.06    -0.38  -0.00  -0.16
     5   1    -0.02   0.02  -0.30    -0.02   0.02  -0.18     0.07  -0.01   0.39
     6   6    -0.02  -0.01  -0.09     0.01   0.03   0.08    -0.01  -0.03  -0.17
     7   6     0.02   0.01   0.14     0.01   0.04   0.05     0.06   0.02   0.05
     8   1    -0.02  -0.02  -0.30     0.02   0.02   0.18    -0.07  -0.01  -0.39
     9   1    -0.13   0.05   0.36    -0.03  -0.01   0.11    -0.11   0.11   0.29
    10   1     0.28   0.04   0.24     0.10   0.17   0.06     0.38  -0.00   0.16
    11   6    -0.00   0.05  -0.06    -0.06  -0.06   0.13    -0.02   0.01   0.03
    12   6    -0.00  -0.05  -0.06     0.06  -0.06  -0.13     0.02   0.01  -0.03
    13   1    -0.03   0.22  -0.06    -0.25  -0.34   0.11    -0.05  -0.07   0.03
    14   1    -0.00   0.01  -0.19    -0.03   0.02   0.43     0.02   0.01   0.11
    15   1    -0.03  -0.22  -0.06     0.25  -0.34  -0.11     0.05  -0.07  -0.03
    16   1    -0.00  -0.01  -0.19     0.03   0.02  -0.43    -0.02   0.01  -0.11
                      4                      5                      6
                      A                      A                      A
 Frequencies --    451.4972               476.9230               655.4503
 Red. masses --      2.5626                 4.2686                 1.3823
 Frc consts  --      0.3078                 0.5721                 0.3499
 IR Inten    --      0.0000                 0.0000                 0.0000
  Atom  AN      X      Y      Z        X      Y      Z        X      Y      Z
     1   6     0.05  -0.08   0.01     0.27   0.00  -0.05     0.04   0.05  -0.03
     2   6     0.10  -0.07   0.01     0.02   0.18   0.11    -0.07   0.06  -0.04
     3   1    -0.07   0.07   0.21     0.25   0.05  -0.02    -0.12  -0.09   0.17
     4   1     0.24  -0.08   0.08     0.23  -0.05  -0.07     0.29   0.04   0.06
     5   1     0.03  -0.11   0.07    -0.16   0.07   0.29    -0.01   0.08   0.52
     6   6     0.10   0.07   0.01    -0.02   0.18  -0.11    -0.07  -0.06  -0.04
     7   6     0.05   0.08   0.01    -0.27   0.00   0.05     0.04  -0.05  -0.03
     8   1     0.03   0.11   0.07     0.16   0.07  -0.29    -0.01  -0.08   0.52
     9   1    -0.07  -0.07   0.21    -0.25   0.05   0.02    -0.12   0.09   0.17
    10   1     0.24   0.08   0.08    -0.23  -0.05   0.07     0.29  -0.04   0.06
    11   6    -0.14  -0.15  -0.06     0.04  -0.17  -0.04     0.03   0.01  -0.01
    12   6    -0.14   0.15  -0.06    -0.04  -0.17   0.04     0.03  -0.01  -0.01
    13   1    -0.28  -0.35  -0.08     0.08  -0.27  -0.04    -0.06  -0.16  -0.01
    14   1    -0.02  -0.14   0.24    -0.18  -0.02   0.01    -0.02   0.09   0.15
    15   1    -0.28   0.35  -0.08    -0.08  -0.27   0.04    -0.06   0.16  -0.01
    16   1    -0.02   0.14   0.24     0.18  -0.02  -0.01    -0.02  -0.09   0.15
                      7                      8                      9
                      A                      A                      A
 Frequencies --    753.4475               823.7877               858.4421
 Red. masses --      1.6016                 2.7516                 1.5127
 Frc consts  --      0.5357                 1.1002                 0.6568
 IR Inten    --      0.0000                 0.0000                 0.0000
  Atom  AN      X      Y      Z        X      Y      Z        X      Y      Z
     1   6    -0.02  -0.05   0.02    -0.14  -0.02   0.08    -0.10   0.00  -0.07
     2   6     0.06  -0.10  -0.09    -0.03   0.16   0.03    -0.02   0.05  -0.00
     3   1     0.00  -0.07  -0.03    -0.03   0.03  -0.10    -0.34  -0.03   0.27
     4   1    -0.06   0.17   0.03    -0.34   0.00   0.02     0.28  -0.14   0.06
     5   1    -0.01  -0.15   0.49    -0.09   0.15  -0.32     0.05   0.08   0.32
     6   6     0.06   0.10  -0.09     0.03   0.16  -0.03     0.02   0.05   0.00
     7   6    -0.02   0.05   0.02     0.14  -0.02  -0.08     0.10   0.00   0.07
     8   1    -0.01   0.15   0.49     0.09   0.15   0.32    -0.05   0.08  -0.32
     9   1     0.00   0.07  -0.03     0.03   0.03   0.10     0.34  -0.03  -0.27
    10   1    -0.06  -0.17   0.03     0.34   0.00  -0.02    -0.28  -0.14  -0.06
    11   6    -0.04   0.02   0.04    -0.03  -0.15  -0.03    -0.03  -0.02  -0.06
    12   6    -0.04  -0.02   0.04     0.03  -0.15   0.03     0.03  -0.02   0.06
    13   1     0.12   0.28   0.05     0.03   0.14  -0.03    -0.00  -0.26  -0.04
    14   1    -0.04  -0.06  -0.25    -0.03  -0.23  -0.29     0.02  -0.01   0.10
    15   1     0.12  -0.28   0.05    -0.03   0.14   0.03     0.00  -0.26   0.04
    16   1    -0.04   0.06  -0.25     0.03  -0.23   0.29    -0.02  -0.01  -0.10
                     10                     11                     12
                      A                      A                      A
 Frequencies --    899.4526               919.8237               939.9701
 Red. masses --      2.3644                 1.7189                 1.6476
 Frc consts  --      1.1270                 0.8568                 0.8577
 IR Inten    --      0.0000                 0.0000                 0.0000
  Atom  AN      X      Y      Z        X      Y      Z        X      Y      Z
     1   6     0.17   0.01  -0.04     0.01   0.09   0.01    -0.01  -0.08   0.01
     2   6    -0.07  -0.11   0.03     0.02  -0.06  -0.08    -0.04   0.07  -0.09
     3   1     0.18   0.02  -0.04     0.02   0.21   0.01     0.04  -0.31  -0.11
     4   1     0.09   0.05  -0.06    -0.02   0.34   0.04    -0.09   0.11   0.01
     5   1    -0.36  -0.27  -0.15     0.11  -0.03   0.38    -0.10   0.01   0.50
     6   6    -0.07   0.11   0.03    -0.02  -0.06   0.08     0.04   0.07   0.09
     7   6     0.17  -0.01  -0.04    -0.01   0.09  -0.01     0.01  -0.08  -0.01
     8   1    -0.36   0.27  -0.15    -0.11  -0.03  -0.38     0.10   0.01  -0.50
     9   1     0.18  -0.02  -0.04    -0.02   0.21  -0.01    -0.04  -0.31   0.11
    10   1     0.09  -0.05  -0.06     0.02   0.34  -0.04     0.09   0.11  -0.01
    11   6    -0.06   0.10   0.02    -0.07  -0.08  -0.02     0.06   0.02   0.07
    12   6    -0.06  -0.10   0.02     0.07  -0.08   0.02    -0.06   0.02  -0.07
    13   1    -0.09   0.04   0.02    -0.05   0.18  -0.03     0.04   0.18   0.06
    14   1    -0.28   0.25   0.09    -0.21  -0.07  -0.26     0.18  -0.08  -0.03
    15   1    -0.09  -0.04   0.02     0.05   0.18   0.03    -0.04   0.18  -0.06
    16   1    -0.28  -0.25   0.09     0.21  -0.07   0.26    -0.18  -0.08   0.03
                     13                     14                     15
                      A                      A                      A
 Frequencies --    961.5736              1020.5086              1074.5708
 Red. masses --      1.3439                 2.6413                 1.6415
 Frc consts  --      0.7321                 1.6207                 1.1167
 IR Inten    --      0.0000                 0.0000                 0.0000
  Atom  AN      X      Y      Z        X      Y      Z        X      Y      Z
     1   6    -0.01  -0.02  -0.09     0.15  -0.01   0.04     0.02  -0.12   0.00
     2   6     0.02   0.01   0.04    -0.08   0.13  -0.01     0.03   0.07  -0.02
     3   1    -0.20  -0.04   0.19     0.30   0.04  -0.16     0.07  -0.40  -0.12
     4   1     0.31  -0.15   0.02    -0.14   0.09  -0.05    -0.08  -0.32  -0.06
     5   1     0.04   0.03  -0.12    -0.01   0.16   0.06     0.22   0.17   0.03
     6   6     0.02  -0.01   0.04    -0.08  -0.13  -0.01     0.03  -0.07  -0.02
     7   6    -0.01   0.02  -0.09     0.15   0.01   0.04     0.02   0.12   0.00
     8   1     0.04  -0.03  -0.12    -0.01  -0.16   0.06     0.22  -0.17   0.03
     9   1    -0.20   0.04   0.19     0.30  -0.04  -0.16     0.07   0.40  -0.12
    10   1     0.31   0.15   0.02    -0.14  -0.09  -0.05    -0.08   0.32  -0.06
    11   6    -0.04  -0.01   0.05    -0.09  -0.14   0.01    -0.04   0.08   0.02
    12   6    -0.04   0.01   0.05    -0.09   0.14   0.01    -0.04  -0.08   0.02
    13   1     0.44  -0.00   0.09     0.18   0.21   0.02    -0.17   0.01   0.01
    14   1    -0.17  -0.01  -0.21    -0.07  -0.25  -0.33    -0.18   0.17   0.06
    15   1     0.44   0.00   0.09     0.18  -0.21   0.02    -0.17  -0.01   0.01
    16   1    -0.17   0.01  -0.21    -0.07   0.25  -0.33    -0.18  -0.17   0.06
                     16                     17                     18
                      A                      A                      A
 Frequencies --   1098.3503              1143.1493              1157.1175
 Red. masses --      1.8115                 1.4790                 1.0430
 Frc consts  --      1.2876                 1.1387                 0.8228
 IR Inten    --      0.0000                 0.0000                 0.0000
  Atom  AN      X      Y      Z        X      Y      Z        X      Y      Z
     1   6    -0.02   0.08   0.04    -0.01   0.02  -0.09     0.01  -0.01  -0.01
     2   6     0.03  -0.03  -0.01     0.00  -0.01   0.09     0.02   0.00   0.02
     3   1     0.00   0.15   0.02    -0.16  -0.16   0.11    -0.01  -0.35  -0.05
     4   1    -0.01   0.10   0.05     0.24   0.42   0.06     0.05   0.01  -0.00
     5   1     0.31   0.13   0.00    -0.16  -0.10  -0.16     0.48   0.27  -0.05
     6   6    -0.03  -0.03   0.01    -0.00  -0.01  -0.09    -0.02   0.00  -0.02
     7   6     0.02   0.08  -0.04     0.01   0.02   0.09    -0.01  -0.01   0.01
     8   1    -0.31   0.13  -0.00     0.16  -0.10   0.16    -0.48   0.27   0.05
     9   1    -0.00   0.15  -0.02     0.16  -0.16  -0.11     0.01  -0.35   0.05
    10   1     0.01   0.10  -0.05    -0.24   0.42  -0.06    -0.05   0.01   0.00
    11   6     0.15  -0.05   0.01     0.02  -0.02   0.06     0.00  -0.01   0.02
    12   6    -0.15  -0.05  -0.01    -0.02  -0.02  -0.06    -0.00  -0.01  -0.02
    13   1     0.27  -0.21   0.02    -0.01   0.21   0.06    -0.05   0.07   0.01
    14   1     0.40  -0.18   0.09     0.15  -0.16  -0.13    -0.21   0.10  -0.07
    15   1    -0.26  -0.21  -0.02     0.01   0.21  -0.06     0.05   0.07  -0.01
    16   1    -0.40  -0.18  -0.09    -0.15  -0.16   0.13     0.21   0.10   0.07
                     19                     20                     21
                      A                      A                      A
 Frequencies --   1186.4092              1250.0498              1324.7240
 Red. masses --      1.1512                 1.4271                 1.2017
 Frc consts  --      0.9547                 1.3139                 1.2425
 IR Inten    --      0.0000                 0.0000                 0.0000
  Atom  AN      X      Y      Z        X      Y      Z        X      Y      Z
     1   6     0.00  -0.01  -0.06    -0.04   0.07   0.04     0.01  -0.03  -0.06
     2   6     0.01   0.01   0.05    -0.04  -0.03   0.01    -0.01   0.02  -0.01
     3   1    -0.10  -0.36   0.02    -0.07  -0.28  -0.00    -0.00   0.35   0.04
     4   1     0.12   0.43   0.05    -0.08   0.08   0.03     0.14  -0.26  -0.04
     5   1    -0.00   0.01  -0.12    -0.26  -0.15   0.01     0.01   0.03   0.02
     6   6     0.01  -0.01   0.05     0.04  -0.03  -0.01    -0.01  -0.02  -0.01
     7   6     0.00   0.01  -0.06     0.04   0.07  -0.04     0.01   0.03  -0.06
     8   1    -0.00  -0.01  -0.12     0.26  -0.15  -0.01     0.01  -0.03   0.02
     9   1    -0.10   0.36   0.02     0.07  -0.28   0.00    -0.00  -0.35   0.04
    10   1     0.12  -0.43   0.05     0.08   0.08  -0.03     0.14   0.26  -0.04
    11   6    -0.00  -0.02   0.01     0.09  -0.02  -0.00    -0.01   0.03   0.06
    12   6    -0.00   0.02   0.01    -0.09  -0.02   0.00    -0.01  -0.03   0.06
    13   1    -0.26   0.22  -0.01     0.18  -0.15   0.00    -0.30   0.28   0.05
    14   1     0.10  -0.09  -0.03    -0.40   0.28   0.01     0.28  -0.17  -0.01
    15   1    -0.26  -0.22  -0.01    -0.18  -0.15  -0.00    -0.30  -0.28   0.05
    16   1     0.10   0.09  -0.03     0.40   0.28  -0.01     0.28   0.17  -0.01
                     22                     23                     24
                      A                      A                      A
 Frequencies --   1334.9307              1390.5873              1405.0976
 Red. masses --      1.5540                 1.2937                 1.3194
 Frc consts  --      1.6316                 1.4739                 1.5347
 IR Inten    --      0.0000                 0.0000                 0.0000
  Atom  AN      X      Y      Z        X      Y      Z        X      Y      Z
     1   6     0.02  -0.03   0.05     0.01   0.09  -0.00    -0.00  -0.10  -0.01
     2   6     0.00   0.00   0.01    -0.01  -0.02  -0.00    -0.05  -0.02   0.01
     3   1     0.05  -0.27  -0.04    -0.01  -0.21  -0.03     0.03   0.37   0.04
     4   1    -0.13   0.48   0.04    -0.02  -0.28  -0.06     0.04   0.35   0.05
     5   1     0.01   0.01  -0.02    -0.07  -0.05   0.02     0.33   0.19  -0.03
     6   6    -0.00   0.00  -0.01     0.01  -0.02   0.00    -0.05   0.02   0.01
     7   6    -0.02  -0.03  -0.05    -0.01   0.09   0.00    -0.00   0.10  -0.01
     8   1    -0.01   0.01   0.02     0.07  -0.05  -0.02     0.33  -0.19  -0.03
     9   1    -0.05  -0.27   0.04     0.01  -0.21   0.03     0.03  -0.37   0.04
    10   1     0.13   0.48  -0.04     0.02  -0.28   0.06     0.04  -0.35   0.05
    11   6    -0.04   0.03  -0.14     0.05  -0.03  -0.04     0.04   0.01   0.00
    12   6     0.04   0.03   0.14    -0.05  -0.03   0.04     0.04  -0.01   0.00
    13   1    -0.14  -0.24  -0.14    -0.53   0.16  -0.09    -0.04  -0.07  -0.01
    14   1     0.18  -0.02   0.15     0.16  -0.09  -0.00    -0.21   0.14  -0.04
    15   1     0.14  -0.24   0.14     0.53   0.16   0.09    -0.04   0.07  -0.01
    16   1    -0.18  -0.02  -0.15    -0.16  -0.09   0.00    -0.21  -0.14  -0.04
                     25                     26                     27
                      A                      A                      A
 Frequencies --   1448.7674              1466.7830              1472.3514
 Red. masses --      1.7774                 1.4096                 1.5192
 Frc consts  --      2.1980                 1.7868                 1.9404
 IR Inten    --      0.0000                 0.0000                 0.0000
  Atom  AN      X      Y      Z        X      Y      Z        X      Y      Z
     1   6     0.03   0.10  -0.00     0.02  -0.02   0.01    -0.05  -0.09  -0.01
     2   6    -0.07  -0.14   0.00    -0.03  -0.02   0.01     0.01   0.02   0.00
     3   1    -0.01  -0.19  -0.00     0.12  -0.05  -0.13     0.07   0.37  -0.05
     4   1    -0.01  -0.21  -0.05     0.11   0.15   0.05     0.16   0.22   0.08
     5   1     0.54   0.21  -0.02     0.14   0.07  -0.02     0.04   0.04   0.00
     6   6    -0.07   0.14   0.00    -0.03   0.02   0.01    -0.01   0.02  -0.00
     7   6     0.03  -0.10  -0.00     0.02   0.02   0.01     0.05  -0.09   0.01
     8   1     0.54  -0.21  -0.02     0.14  -0.07  -0.02    -0.04   0.04  -0.00
     9   1    -0.01   0.19  -0.00     0.12   0.05  -0.13    -0.07   0.37   0.05
    10   1    -0.01   0.21  -0.05     0.11  -0.15   0.05    -0.16   0.22  -0.08
    11   6    -0.01  -0.05  -0.00    -0.08   0.10  -0.01     0.11  -0.00  -0.01
    12   6    -0.01   0.05  -0.00    -0.08  -0.10  -0.01    -0.11  -0.00   0.01
    13   1    -0.01   0.20   0.01     0.22  -0.30   0.00    -0.41   0.04  -0.05
    14   1     0.02  -0.02   0.10     0.44  -0.22  -0.01    -0.20   0.20   0.03
    15   1    -0.01  -0.20   0.01     0.22   0.30   0.00     0.41   0.04   0.05
    16   1     0.02   0.02   0.10     0.44   0.22  -0.01     0.20   0.20  -0.03
                     28                     29                     30
                      A                      A                      A
 Frequencies --   1517.6515              1518.1578              1604.3700
 Red. masses --      1.1083                 1.1066                 1.1115
 Frc consts  --      1.5040                 1.5027                 1.6856
 IR Inten    --      0.0000                 0.0000                 0.0000
  Atom  AN      X      Y      Z        X      Y      Z        X      Y      Z
     1   6    -0.06   0.01   0.02    -0.05   0.02   0.02    -0.01   0.00  -0.00
     2   6     0.00  -0.00   0.00     0.01  -0.00   0.00    -0.00  -0.00   0.00
     3   1     0.26  -0.00  -0.42     0.27  -0.07  -0.43     0.03  -0.00  -0.05
     4   1     0.44  -0.06   0.18     0.42  -0.06   0.17     0.08   0.00   0.02
     5   1    -0.03  -0.01  -0.00    -0.06  -0.04   0.01     0.01   0.00   0.00
     6   6     0.00   0.00   0.00    -0.01  -0.00  -0.00     0.00  -0.00  -0.00
     7   6    -0.06  -0.01   0.02     0.05   0.02  -0.02     0.01   0.00   0.00
     8   1    -0.03   0.01  -0.00     0.06  -0.04  -0.01    -0.01   0.00  -0.00
     9   1     0.26   0.00  -0.42    -0.27  -0.07   0.43    -0.03  -0.00   0.05
    10   1     0.44   0.06   0.18    -0.42  -0.06  -0.17    -0.08   0.00  -0.02
    11   6     0.01  -0.03  -0.00    -0.03   0.01  -0.00    -0.01  -0.05  -0.04
    12   6     0.01   0.03  -0.00     0.03   0.01   0.00     0.01  -0.05   0.04
    13   1    -0.05   0.04   0.01     0.04  -0.10   0.01     0.17   0.44  -0.01
    14   1    -0.11   0.04  -0.02     0.04  -0.05  -0.06     0.02   0.12   0.50
    15   1    -0.05  -0.04   0.01    -0.04  -0.10  -0.01    -0.17   0.44   0.01
    16   1    -0.11  -0.04  -0.02    -0.04  -0.05   0.06    -0.02   0.12  -0.50
                     31                     32                     33
                      A                      A                      A
 Frequencies --   1631.2902              1715.9110              3080.2976
 Red. masses --      1.0992                 5.9030                 1.0747
 Frc consts  --      1.7234                10.2403                 6.0078
 IR Inten    --      0.0000                 0.0000                 0.0000
  Atom  AN      X      Y      Z        X      Y      Z        X      Y      Z
     1   6    -0.01  -0.03  -0.00    -0.06  -0.02   0.00     0.03   0.00  -0.05
     2   6     0.00   0.02  -0.00     0.46   0.07  -0.03    -0.00   0.00   0.00
     3   1     0.02   0.06  -0.01    -0.13  -0.21   0.07    -0.08   0.01  -0.07
     4   1     0.03   0.07   0.01    -0.13  -0.10  -0.03    -0.22  -0.08   0.64
     5   1    -0.03  -0.00   0.01    -0.21  -0.36   0.05     0.03  -0.03  -0.00
     6   6     0.00  -0.02  -0.00    -0.46   0.07   0.03    -0.00  -0.00   0.00
     7   6    -0.01   0.03  -0.00     0.06  -0.02  -0.00     0.03  -0.00  -0.05
     8   1    -0.03   0.00   0.01     0.21  -0.36  -0.05     0.03   0.03  -0.00
     9   1     0.02  -0.06  -0.01     0.13  -0.21  -0.07    -0.08  -0.01  -0.07
    10   1     0.03  -0.07   0.01     0.13  -0.10   0.03    -0.22   0.08   0.64
    11   6    -0.03  -0.01  -0.04     0.02  -0.00  -0.00    -0.00   0.00   0.01
    12   6    -0.03   0.01  -0.04    -0.02  -0.00   0.00    -0.00  -0.00   0.01
    13   1     0.30   0.36  -0.03    -0.01   0.01  -0.00     0.01  -0.00  -0.13
    14   1     0.07   0.09   0.50    -0.07   0.06   0.03    -0.00  -0.01   0.02
    15   1     0.30  -0.36  -0.03     0.01   0.01   0.00     0.01   0.00  -0.13
    16   1     0.07  -0.09   0.50     0.07   0.06  -0.03    -0.00   0.01   0.02
                     34                     35                     36
                      A                      A                      A
 Frequencies --   3082.0223              3124.9151              3177.0455
 Red. masses --      1.0771                 1.0760                 1.0830
 Frc consts  --      6.0281                 6.1905                 6.4406
 IR Inten    --      0.0000                 0.0000                 0.0000
  Atom  AN      X      Y      Z        X      Y      Z        X      Y      Z
     1   6    -0.02  -0.00   0.05     0.02  -0.00   0.01     0.03  -0.01   0.02
     2   6     0.00  -0.00  -0.00     0.00  -0.00  -0.00    -0.02   0.03   0.00
     3   1     0.04  -0.01   0.04    -0.21   0.03  -0.15    -0.35   0.05  -0.25
     4   1     0.23   0.08  -0.65     0.00   0.00   0.00     0.01   0.01  -0.01
     5   1    -0.02   0.02   0.00    -0.02   0.04  -0.00     0.20  -0.35  -0.02
     6   6    -0.00  -0.00   0.00    -0.00  -0.00   0.00    -0.02  -0.03   0.00
     7   6     0.02  -0.00  -0.05    -0.02  -0.00  -0.01     0.03   0.01   0.02
     8   1     0.02   0.02  -0.00     0.02   0.04   0.00     0.20   0.35  -0.02
     9   1    -0.04  -0.01  -0.04     0.21   0.03   0.15    -0.35  -0.05  -0.25
    10   1    -0.23   0.08   0.65    -0.00   0.00  -0.00     0.01  -0.01  -0.01
    11   6     0.00   0.00  -0.00     0.00  -0.01  -0.05    -0.01  -0.01  -0.03
    12   6    -0.00   0.00   0.00    -0.00  -0.01   0.05    -0.01   0.01  -0.03
    13   1     0.01  -0.00   0.03    -0.06   0.00   0.64    -0.02   0.00   0.36
    14   1    -0.04  -0.07   0.01     0.04   0.07  -0.03     0.07   0.12  -0.03
    15   1    -0.01  -0.00  -0.03     0.06   0.00  -0.64    -0.02  -0.00   0.36
    16   1     0.04  -0.07  -0.01    -0.04   0.07   0.03     0.07  -0.12  -0.03
                     37                     38                     39
                      A                      A                      A
 Frequencies --   3200.6702              3205.0787              3211.5878
 Red. masses --      1.0845                 1.0914                 1.0816
 Frc consts  --      6.5460                 6.6056                 6.5729
 IR Inten    --      0.0000                 0.0000                 0.0000
  Atom  AN      X      Y      Z        X      Y      Z        X      Y      Z
     1   6    -0.03   0.01  -0.03    -0.01   0.00  -0.01    -0.01   0.00  -0.02
     2   6    -0.02   0.03   0.00     0.03  -0.05  -0.00     0.01  -0.02  -0.00
     3   1     0.41  -0.06   0.29     0.18  -0.03   0.13     0.18  -0.02   0.13
     4   1    -0.02  -0.01   0.04    -0.02  -0.01   0.04    -0.06  -0.01   0.14
     5   1     0.24  -0.42  -0.01    -0.33   0.58   0.02    -0.15   0.27   0.01
     6   6    -0.02  -0.03   0.00    -0.03  -0.05   0.00     0.01   0.02  -0.00
     7   6    -0.03  -0.01  -0.03     0.01   0.00   0.01    -0.01  -0.00  -0.02
     8   1     0.24   0.43  -0.01     0.33   0.58  -0.02    -0.15  -0.27   0.01
     9   1     0.41   0.06   0.29    -0.18  -0.03  -0.13     0.18   0.02   0.13
    10   1    -0.02   0.01   0.04     0.02  -0.01  -0.04    -0.06   0.01   0.14
    11   6     0.00  -0.00  -0.00    -0.00  -0.00  -0.00    -0.00  -0.01  -0.05
    12   6     0.00   0.00  -0.00     0.00  -0.00   0.00    -0.00   0.01  -0.05
    13   1    -0.01  -0.00   0.05     0.00  -0.00   0.05    -0.03  -0.00   0.56
    14   1     0.01   0.02  -0.01     0.01   0.01  -0.00     0.06   0.09  -0.02
    15   1    -0.01   0.00   0.05    -0.00  -0.00  -0.05    -0.03   0.00   0.56
    16   1     0.01  -0.02  -0.01    -0.01   0.01   0.00     0.06  -0.09  -0.02
                     40                     41                     42
                      A                      A                      A
 Frequencies --   3228.0376              3299.5205              3322.3053
 Red. masses --      1.0860                 1.0918                 1.0842
 Frc consts  --      6.6674                 7.0029                 7.0506
 IR Inten    --      0.0000                 0.0000                 0.0000
  Atom  AN      X      Y      Z        X      Y      Z        X      Y      Z
     1   6    -0.04   0.01  -0.03    -0.00  -0.00  -0.00    -0.01   0.00   0.00
     2   6    -0.01   0.02   0.00     0.00  -0.00  -0.00    -0.00   0.00   0.00
     3   1     0.49  -0.07   0.35     0.03  -0.00   0.02     0.07  -0.01   0.05
     4   1    -0.03  -0.01   0.04     0.00   0.00  -0.01     0.02   0.01  -0.07
     5   1     0.10  -0.19  -0.01    -0.03   0.05   0.00     0.01  -0.03  -0.00
     6   6     0.01   0.02  -0.00     0.00   0.00  -0.00     0.00   0.00  -0.00
     7   6     0.04   0.01   0.03    -0.00   0.00  -0.00     0.01   0.00  -0.00
     8   1    -0.10  -0.19   0.01    -0.03  -0.05   0.00    -0.01  -0.03   0.00
     9   1    -0.49  -0.07  -0.35     0.03   0.00   0.02    -0.07  -0.01  -0.05
    10   1     0.03  -0.01  -0.04     0.00  -0.00  -0.01    -0.02   0.01   0.07
    11   6     0.00   0.00  -0.02    -0.03  -0.05   0.03    -0.03  -0.05   0.02
    12   6    -0.00   0.00   0.02    -0.03   0.05   0.03     0.03  -0.05  -0.02
    13   1    -0.02  -0.00   0.27     0.01  -0.01  -0.15    -0.00  -0.01  -0.04
    14   1    -0.03  -0.05   0.00     0.35   0.57  -0.17     0.35   0.57  -0.19
    15   1     0.02  -0.00  -0.27     0.01   0.01  -0.15     0.00  -0.01   0.04
    16   1     0.03  -0.05  -0.00     0.35  -0.57  -0.17    -0.35   0.57   0.19

 -------------------
 - Thermochemistry -
 -------------------
 Temperature   298.150 Kelvin.  Pressure   1.00000 Atm.
 Atom     1 has atomic number  6 and mass  12.00000
 Atom     2 has atomic number  6 and mass  12.00000
 Atom     3 has atomic number  1 and mass   1.00783
 Atom     4 has atomic number  1 and mass   1.00783
 Atom     5 has atomic number  1 and mass   1.00783
 Atom     6 has atomic number  6 and mass  12.00000
 Atom     7 has atomic number  6 and mass  12.00000
 Atom     8 has atomic number  1 and mass   1.00783
 Atom     9 has atomic number  1 and mass   1.00783
 Atom    10 has atomic number  1 and mass   1.00783
 Atom    11 has atomic number  6 and mass  12.00000
 Atom    12 has atomic number  6 and mass  12.00000
 Atom    13 has atomic number  1 and mass   1.00783
 Atom    14 has atomic number  1 and mass   1.00783
 Atom    15 has atomic number  1 and mass   1.00783
 Atom    16 has atomic number  1 and mass   1.00783
 Molecular mass:    82.07825 amu.
 Principal axes and moments of inertia in atomic units:
                           1         2         3
     Eigenvalues --   383.94381 399.33487 712.46874
           X            1.00000   0.00000  -0.00245
           Y           -0.00000   1.00000  -0.00000
           Z            0.00245   0.00000   1.00000
 This molecule is an asymmetric top.
 Rotational symmetry number  1.
 Rotational temperatures (Kelvin)      0.22559     0.21690     0.12157
 Rotational constants (GHZ):           4.70053     4.51937     2.53308
 Zero-point vibrational energy     396435.8 (Joules/Mol)
                                   94.75043 (Kcal/Mol)
 Warning -- explicit consideration of   5 degrees of freedom as
           vibrations may cause significant error
 Vibrational temperatures:    290.90   366.10   560.59   649.60   686.19
          (Kelvin)            943.05  1084.04  1185.25  1235.11  1294.11
                             1323.42  1352.41  1383.49  1468.28  1546.07
                             1580.28  1644.74  1664.83  1706.98  1798.54
                             1905.98  1920.67  2000.75  2021.62  2084.45
                             2110.37  2118.39  2183.56  2184.29  2308.33
                             2347.06  2468.81  4431.86  4434.34  4496.06
                             4571.06  4605.05  4611.39  4620.76  4644.43
                             4747.27  4780.06
 
 Zero-point correction=                           0.150994 (Hartree/Particle)
 Thermal correction to Energy=                    0.156470
 Thermal correction to Enthalpy=                  0.157414
 Thermal correction to Gibbs Free Energy=         0.122409
 Sum of electronic and zero-point Energies=           -234.497595
 Sum of electronic and thermal Energies=              -234.492120
 Sum of electronic and thermal Enthalpies=            -234.491176
 Sum of electronic and thermal Free Energies=         -234.526180
 
                     E (Thermal)             CV                S
                      KCal/Mol        Cal/Mol-Kelvin    Cal/Mol-Kelvin
 Total                   98.186             21.187             73.673
 Electronic               0.000              0.000              0.000
 Translational            0.889              2.981             39.129
 Rotational               0.889              2.981             26.194
 Vibrational             96.409             15.225              8.350
 Vibration     1          0.639              1.837              2.113
 Vibration     2          0.665              1.755              1.700
 Vibration     3          0.758              1.492              1.002
 Vibration     4          0.810              1.358              0.791
 Vibration     5          0.833              1.301              0.718
                       Q            Log10(Q)             Ln(Q)
 Total Bot       0.496201D-56        -56.304343       -129.645540
 Total V=0       0.140673D+14         13.148211         30.274875
 Vib (Bot)       0.143493D-68        -68.843170       -158.517256
 Vib (Bot)    1  0.985376D+00         -0.006398         -0.014732
 Vib (Bot)    2  0.765388D+00         -0.116118         -0.267372
 Vib (Bot)    3  0.460898D+00         -0.336395         -0.774577
 Vib (Bot)    4  0.379357D+00         -0.420952         -0.969278
 Vib (Bot)    5  0.351602D+00         -0.453949         -1.045256
 Vib (V=0)       0.406803D+01          0.609384          1.403159
 Vib (V=0)    1  0.160497D+01          0.205468          0.473107
 Vib (V=0)    2  0.141423D+01          0.150520          0.346586
 Vib (V=0)    3  0.118002D+01          0.071889          0.165532
 Vib (V=0)    4  0.112762D+01          0.052164          0.120112
 Vib (V=0)    5  0.111125D+01          0.045811          0.105484
 Electronic      0.100000D+01          0.000000          0.000000
 Translational   0.292278D+08          7.465796         17.190631
 Rotational      0.118313D+06          5.073031         11.681085
 ***** Axes restored to original set *****
 -------------------------------------------------------------------
 Center     Atomic                   Forces (Hartrees/Bohr)
 Number     Number              X              Y              Z
 -------------------------------------------------------------------
      1        6          -0.000001575   -0.000007570   -0.000003035
      2        6           0.000007009   -0.000001195    0.000001201
      3        1          -0.000008705    0.000003268   -0.000005127
      4        1          -0.000001488    0.000002190    0.000008006
      5        1           0.000000746    0.000000303    0.000000015
      6        6          -0.000007054   -0.000001242   -0.000001202
      7        6           0.000001800   -0.000007595    0.000003106
      8        1          -0.000000719    0.000000379   -0.000000011
      9        1           0.000008620    0.000003252    0.000005099
     10        1           0.000001483    0.000002203   -0.000008101
     11        6           0.000010481    0.000000794   -0.000016678
     12        6          -0.000010549    0.000000826    0.000016861
     13        1          -0.000005431   -0.000001001   -0.000004811
     14        1           0.000000744    0.000003145    0.000006782
     15        1           0.000005399   -0.000001005    0.000004703
     16        1          -0.000000762    0.000003248   -0.000006807
 -------------------------------------------------------------------
 Cartesian Forces:  Max     0.000016861 RMS     0.000005805
 Z-matrix is all fixed cartesians, so copy forces.
 Leave Link  716 at Mon May 26 08:18:24 2025, MaxMem=   104857600 cpu:               0.1 elap:               0.1
 (Enter /mlatom/software/Gaussian/g16-avx2/l103.exe)

 GradGradGradGradGradGradGradGradGradGradGradGradGradGradGradGradGradGrad
 Berny optimization.
 Search for a local minimum.
 Step number   1 out of a maximum of    2
 All quantities printed in internal units (Hartrees-Bohrs-Radians)
 Second derivative matrix not updated -- analytic derivatives used.
 ITU=  0
     Eigenvalues ---    0.00271   0.00420   0.01057   0.01542   0.02841
     Eigenvalues ---    0.02951   0.04402   0.04485   0.04780   0.05006
     Eigenvalues ---    0.05171   0.05491   0.05812   0.06631   0.07899
     Eigenvalues ---    0.07951   0.08762   0.09680   0.10217   0.13435
     Eigenvalues ---    0.14251   0.16188   0.16521   0.19271   0.22308
     Eigenvalues ---    0.23149   0.23642   0.35695   0.38239   0.56254
     Eigenvalues ---    0.57694   0.68070   0.72010   0.77731   0.81569
     Eigenvalues ---    0.84444   0.87591   0.87820   0.91813   0.95752
     Eigenvalues ---    0.99525   1.39097
 Angle between quadratic step and forces=  74.37 degrees.
 Linear search not attempted -- first point.
 B after Tr=     0.000000    0.000001    0.000000
         Rot=    1.000000   -0.000000    0.000002    0.000000 Ang=   0.00 deg.
 Variable       Old X    -DE/DX   Delta X   Delta X   Delta X     New X
                                 (Linear)    (Quad)   (Total)
    X1       -2.83537  -0.00000   0.00000  -0.00006  -0.00006  -2.83544
    Y1        0.08926  -0.00001   0.00000   0.00002   0.00002   0.08928
    Z1        0.21733  -0.00000   0.00000  -0.00006  -0.00007   0.21727
    X2       -1.26370   0.00001   0.00000   0.00000   0.00000  -1.26370
    Y2        2.47519  -0.00000   0.00000  -0.00001  -0.00001   2.47518
    Z2        0.08034   0.00000   0.00000  -0.00004  -0.00004   0.08030
    X3       -4.52793  -0.00001   0.00000  -0.00005  -0.00004  -4.52797
    Y3        0.29594   0.00000   0.00000   0.00004   0.00004   0.29598
    Z3       -0.96433  -0.00001   0.00000  -0.00011  -0.00013  -0.96446
    X4       -3.52878  -0.00000   0.00000  -0.00011  -0.00012  -3.52890
    Y4       -0.16023   0.00000   0.00000   0.00011   0.00011  -0.16012
    Z4        2.16759   0.00001   0.00000  -0.00004  -0.00006   2.16753
    X5       -2.27384   0.00000   0.00000   0.00003   0.00003  -2.27381
    Y5        4.26533   0.00000   0.00000   0.00001   0.00001   4.26534
    Z5        0.14380   0.00000   0.00000  -0.00007  -0.00008   0.14372
    X6        1.26369  -0.00001   0.00000  -0.00000  -0.00000   1.26369
    Y6        2.47520  -0.00000   0.00000  -0.00001  -0.00001   2.47519
    Z6       -0.08034  -0.00000   0.00000   0.00004   0.00004  -0.08030
    X7        2.83537   0.00000   0.00000   0.00006   0.00006   2.83544
    Y7        0.08927  -0.00001   0.00000   0.00002   0.00002   0.08930
    Z7       -0.21733   0.00000   0.00000   0.00006   0.00006  -0.21727
    X8        2.27382  -0.00000   0.00000  -0.00003  -0.00003   2.27379
    Y8        4.26534   0.00000   0.00000   0.00001   0.00001   4.26535
    Z8       -0.14380  -0.00000   0.00000   0.00008   0.00008  -0.14371
    X9        4.52793   0.00001   0.00000   0.00005   0.00004   4.52797
    Y9        0.29596   0.00000   0.00000   0.00004   0.00004   0.29600
    Z9        0.96433   0.00001   0.00000   0.00011   0.00013   0.96445
   X10        3.52878   0.00000   0.00000   0.00011   0.00012   3.52890
   Y10       -0.16022   0.00000   0.00000   0.00011   0.00011  -0.16011
   Z10       -2.16759  -0.00001   0.00000   0.00004   0.00005  -2.16753
   X11       -1.32349   0.00001   0.00000  -0.00003  -0.00002  -1.32351
   Y11       -2.25860   0.00000   0.00000  -0.00001  -0.00001  -2.25860
   Z11       -0.59341  -0.00002   0.00000   0.00004   0.00004  -0.59337
   X12        1.32350  -0.00001   0.00000   0.00003   0.00002   1.32352
   Y12       -2.25859   0.00000   0.00000  -0.00001  -0.00000  -2.25860
   Z12        0.59341   0.00002   0.00000  -0.00004  -0.00004   0.59337
   X13       -1.14433  -0.00001   0.00000  -0.00021  -0.00020  -1.14453
   Y13       -2.26319  -0.00000   0.00000  -0.00024  -0.00024  -2.26343
   Z13       -2.66089  -0.00000   0.00000   0.00003   0.00002  -2.66086
   X14       -2.35009   0.00000   0.00000   0.00002   0.00002  -2.35007
   Y14       -3.97308   0.00000   0.00000   0.00006   0.00006  -3.97302
   Z14       -0.06754   0.00001   0.00000   0.00035   0.00034  -0.06721
   X15        1.14434   0.00001   0.00000   0.00021   0.00020   1.14454
   Y15       -2.26319  -0.00000   0.00000  -0.00023  -0.00023  -2.26342
   Z15        2.66089   0.00000   0.00000  -0.00003  -0.00002   2.66086
   X16        2.35011  -0.00000   0.00000  -0.00002  -0.00002   2.35008
   Y16       -3.97307   0.00000   0.00000   0.00006   0.00006  -3.97300
   Z16        0.06754  -0.00001   0.00000  -0.00034  -0.00034   0.06721
         Item               Value     Threshold  Converged?
 Maximum Force            0.000017     0.000450     YES
 RMS     Force            0.000006     0.000300     YES
 Maximum Displacement     0.000339     0.001800     YES
 RMS     Displacement     0.000109     0.001200     YES
 Predicted change in Energy=-4.084574D-09
 Optimization completed.
    -- Stationary point found.
 GradGradGradGradGradGradGradGradGradGradGradGradGradGradGradGradGradGrad

 Leave Link  103 at Mon May 26 08:18:25 2025, MaxMem=   104857600 cpu:               0.1 elap:               0.2
 (Enter /mlatom/software/Gaussian/g16-avx2/l9999.exe)
 1\1\GINC-B004\Freq\RExternal='/mlatom/software/miniconda3/bin/python /
 mlatom/software/mlatom_xacs/ml\ZDO\C6H10\UNKNOWN\26-May-2025\0\\#p Fre
 q external='/mlatom/software/miniconda3/bin/python /mlatom/software/ml
 atom_xacs/mlatom/interfaces/gaussian_interface.py model_predict_kwargs
 '\\7759976e-1f1f-4c6b-97f0-479b581a5926\\0,1\C,-1.500415669,0.04723389
 09,0.1150078394\C,-0.6687232375,1.3098158112,0.0425124406\H,-2.3960757
 819,0.1566038408,-0.5102999637\H,-1.8673492226,-0.0847925772,1.1470378
 225\H,-1.2032653125,2.2571134839,0.0760939821\C,0.6687167945,1.3098188
 179,-0.0425125069\C,1.50041537,0.047240926,-0.1150074881\H,1.203254429
 6,2.2571190231,-0.0760945113\H,2.3960747851,0.1566153235,0.5103005685\
 H,1.8673502098,-0.08478373,-1.1470371529\C,-0.7003597215,-1.1951980034
 ,-0.3140204758\C,0.700365604,-1.1951951137,0.3140202083\H,-0.605554886
 1,-1.1976294876,-1.4080803119\H,-1.2436142935,-2.1024607566,-0.0357427
 376\H,0.6055609708,-1.1976276287,1.408080259\H,1.2436242584,-2.1024554
 65,0.0357419406\\Version=ES64L-G16RevA.03\HF=-234.6485896\RMSD=0.000e+
 00\RMSF=5.805e-06\ZeroPoint=0.1509944\Thermal=0.1564697\Dipole=0.,0.,0
 .\PG=C01 [X(C6H10)]\NImag=0\\0.57636088,-0.01615696,0.47650307,0.03291
 559,-0.00888167,0.57851940,-0.12575693,-0.05570010,0.00255785,0.813786
 03,-0.05361672,-0.17893858,0.00144886,-0.04268470,0.60147941,0.0020107
 2,0.00900368,-0.07599058,-0.04852509,0.00303729,0.15224168,-0.23962612
 ,0.03088501,-0.12922770,-0.01676602,0.00387886,-0.00898471,0.25674894,
 0.02678109,-0.05655365,0.01296959,-0.02590146,0.00065034,-0.01594567,-
 0.02979142,0.06070146,-0.13876285,0.01843977,-0.14499706,0.00529421,0.
 00175996,0.00153740,0.14378655,-0.01839046,0.15493977,-0.07671045,-0.0
 0655719,0.08024663,-0.00896564,-0.00518905,0.01830085,0.00781320,0.003
 78274,-0.02619572,0.08203456,-0.01121147,-0.05275381,0.03215353,-0.012
 64588,-0.00124656,0.02471383,-0.00168087,0.00086729,0.00337993,0.01166
 697,0.05856872,0.08208690,0.02228157,-0.27831116,-0.00134383,-0.001328
 52,0.00336194,0.00508900,0.00300616,-0.01904252,-0.08885247,-0.0285480
 3,0.30306226,0.01059872,-0.01225711,-0.00299988,-0.12544924,0.11276186
 ,0.00625757,0.00051061,0.00053643,-0.00038510,-0.00010755,0.00050283,0
 .00113845,0.13116005,0.01413969,-0.01920534,-0.00412318,0.11888906,-0.
 26863098,-0.00837525,-0.00123555,0.00122566,0.00053571,-0.00152119,0.0
 0111426,0.00177846,-0.13119836,0.28776914,-0.00450089,-0.00035160,0.00
 678984,0.00881494,-0.00484782,-0.03853759,0.00064702,0.00053975,0.0005
 2450,-0.00036045,-0.00201531,-0.00066563,-0.00676141,0.00866543,0.0212
 5056,-0.01523079,-0.00487326,0.00260556,-0.52254254,-0.00451450,0.0293
 4951,0.00237758,-0.00051060,0.00157250,0.00192748,-0.00055285,-0.00133
 840,-0.01301200,0.00182773,-0.00032704,0.81378573,-0.03239631,0.014028
 59,0.00329526,0.00451270,-0.12527385,-0.00043517,-0.00182549,-0.005282
 03,0.00044514,-0.00162288,-0.00591755,-0.00149867,0.03549358,-0.001020
 90,-0.00047863,0.04268573,0.60141563,0.00563897,-0.00083871,0.00860539
 ,0.02934950,0.00043533,-0.05898867,-0.00035923,-0.00064069,0.00009356,
 -0.00154803,0.00182032,0.00005349,0.00132184,0.00159866,0.00627791,-0.
 04852517,-0.00303774,0.15224172,0.00445386,-0.00210888,-0.00038735,-0.
 01523097,0.03239610,0.00563895,0.00325722,0.00055461,-0.00007359,-0.00
 074606,0.00027448,0.00018867,-0.00765335,0.00095823,0.00124190,-0.1257
 5760,0.05361710,0.00201075,0.57636100,0.00210896,-0.00826123,-0.001646
 59,0.00487311,0.01402884,0.00083873,0.00152072,-0.00101220,-0.00028977
 ,0.00135149,0.00073142,0.00032708,-0.00294926,0.00194888,0.00056678,0.
 05570043,-0.17893825,-0.00900361,0.01615739,0.47650310,-0.00038736,0.0
 0164658,-0.00135909,0.00260557,-0.00329523,0.00860541,-0.00229883,0.00
 073708,-0.00173162,0.00100267,-0.00045159,0.00065986,-0.00002285,-0.00
 002185,0.00574689,0.00255786,-0.00144884,-0.07599059,0.03291534,0.0088
 8181,0.57851982,-0.00765339,0.00294919,-0.00002284,-0.01301180,-0.0354
 9363,0.00132185,0.00039156,-0.00152291,0.00037201,0.00015161,-0.000900
 05,0.00007582,0.00438175,-0.00025234,-0.00021495,-0.12544824,-0.112761
 43,0.00625761,0.01059872,0.01225725,-0.00299992,0.13115890,-0.00095828
 ,0.00194888,0.00002185,-0.00182777,-0.00102107,-0.00159865,-0.00034767
 ,0.00057371,0.00033204,0.00101132,-0.00106307,-0.00018029,0.00025235,0
 .00080632,-0.00054775,-0.11888859,-0.26863247,0.00837539,-0.01413953,-
 0.01920537,0.00412320,0.13119785,0.28776595,0.00124192,-0.00056677,0.0
 0574690,-0.00032706,0.00047863,0.00627793,0.00100374,0.00132954,0.0006
 9773,-0.00103677,-0.00110327,0.00070150,-0.00021495,0.00054775,-0.0043
 9346,0.00881500,0.00484798,-0.03853760,-0.00450089,0.00035159,0.006789
 83,-0.00676145,-0.00866561,0.02125055,0.00325722,-0.00152068,-0.002298
 82,0.00237759,0.00182552,-0.00035923,-0.00213261,0.00058564,-0.0010578
 4,0.00028984,0.00024736,0.00087926,0.00039155,0.00034768,0.00100375,-0
 .01676612,-0.00387892,-0.00898477,-0.23962559,-0.03088594,-0.12922758,
 0.00051062,0.00123553,0.00064703,0.25674841,-0.00055458,-0.00101220,-0
 .00073709,0.00051063,-0.00528204,0.00064070,-0.00058566,0.00056923,-0.
 00015890,0.00070562,0.00026740,0.00001794,0.00152291,0.00057372,-0.001
 32954,0.02590137,0.00065044,0.01594564,-0.02678195,-0.05655400,-0.0129
 7024,-0.00053642,0.00122566,-0.00053975,0.02979240,0.06070182,-0.00007
 359,0.00028977,-0.00173161,0.00157250,-0.00044513,0.00009356,-0.001057
 83,0.00015890,-0.00032672,0.00027349,-0.00006472,0.00024479,0.00037201
 ,-0.00033204,0.00069773,0.00529422,-0.00175994,0.00153742,-0.13876276,
 -0.01844049,-0.14499724,-0.00038509,-0.00053572,0.00052451,0.14378642,
 0.01839118,0.15493992,-0.00074606,-0.00135149,0.00100266,0.00192746,0.
 00162291,-0.00154803,0.00028983,-0.00070562,0.00027349,0.00033346,0.00
 012933,-0.00048421,0.00015160,-0.00101131,-0.00103677,-0.00896571,0.00
 518902,0.01830096,-0.07671069,0.00655707,0.08024703,-0.00010755,0.0015
 2118,-0.00036047,0.00781322,-0.00378270,-0.02619570,0.08203484,-0.0002
 7449,0.00073142,0.00045160,0.00055290,-0.00591755,-0.00182033,-0.00024
 737,0.00026740,0.00006472,-0.00012932,-0.00029122,0.00032859,0.0009000
 6,-0.00106308,0.00110326,0.01264585,-0.00124646,-0.02471376,0.01121137
 ,-0.05275378,-0.03215318,-0.00050284,0.00111428,0.00201531,0.00168092,
 0.00086729,-0.00338008,-0.01166685,0.05856865,0.00018866,-0.00032709,0
 .00065986,-0.00133840,0.00149867,0.00005349,0.00087926,-0.00001794,0.0
 0024479,-0.00048421,-0.00032860,-0.00028825,0.00007582,0.00018028,0.00
 070150,-0.00134382,0.00132851,0.00336191,0.08208723,-0.02228113,-0.278
 31116,0.00113846,-0.00177846,-0.00066563,0.00508899,-0.00300614,-0.019
 04257,-0.08885290,0.02854758,0.30306241,-0.10725790,0.03675667,0.01246
 450,0.01421636,-0.01532042,-0.00398616,-0.01432667,0.02484111,0.011433
 33,-0.00577976,0.01014686,0.00398640,0.00010345,-0.00274073,0.00088122
 ,-0.00197262,0.00280040,0.00108880,-0.02828670,-0.02271249,-0.00494369
 ,0.00082815,0.00272822,-0.00016309,0.00361448,-0.00008055,0.00352726,0
 .00230220,0.00274166,-0.00648919,0.52617133,0.05634545,-0.15473755,-0.
 02857127,0.00651521,-0.02931364,-0.00810356,-0.00046106,-0.00040726,-0
 .00388462,-0.00381363,0.00133976,0.00585552,-0.00396548,-0.00343194,-0
 .00068267,0.00403660,0.00079218,0.00078091,-0.02396066,0.00196215,-0.0
 1424276,0.00230726,0.00073793,0.00041688,-0.00226319,-0.00375794,0.002
 43829,0.00122909,0.00115894,-0.00137826,0.07274197,0.58517766,0.010061
 42,-0.01457016,-0.09608164,0.00318151,-0.00280016,0.00270863,-0.010775
 08,0.01584413,0.00639005,0.02151864,-0.03162208,-0.01939350,0.00195713
 ,-0.00059368,0.00089212,-0.00051286,0.00422505,-0.00108990,0.00307191,
 -0.00696731,0.00592224,0.00064322,0.00343929,0.00051726,0.00214348,0.0
 0316689,0.00082019,0.00207684,-0.00024669,0.00080968,-0.02686709,-0.03
 641008,0.64684016,-0.02828695,0.02271233,-0.00494374,-0.00197260,-0.00
 280041,0.00108879,0.00361445,0.00008059,0.00352726,0.00230219,-0.00274
 163,-0.00648914,0.00082816,-0.00272821,-0.00016309,0.01421632,0.015320
 62,-0.00398621,-0.10725768,-0.03675649,0.01246435,0.00010340,0.0027407
 2,0.00088122,-0.01432657,-0.02484124,0.01143332,-0.00577975,-0.0101469
 3,0.00398649,-0.18326372,-0.01551349,-0.03151628,0.52617264,0.02396051
 ,0.00196233,0.01424271,-0.00403662,0.00079215,-0.00078089,0.00226321,-
 0.00375792,-0.00243828,-0.00122907,0.00115892,0.00137823,-0.00230725,0
 .00073792,-0.00041689,-0.00651501,-0.02931367,0.00810355,-0.05634534,-
 0.15473831,0.02857140,0.00396548,-0.00343192,0.00068268,0.00046098,-0.
 00040737,0.00388468,0.00381359,0.00133971,-0.00585550,0.01551309,-0.08
 573283,0.00305979,-0.07274213,0.58509034,0.00307188,0.00696731,0.00592
 221,-0.00051281,-0.00422512,-0.00108989,0.00214348,-0.00316687,0.00082
 019,0.00207683,0.00024671,0.00080969,0.00064324,-0.00343929,0.00051726
 ,0.00318149,0.00280017,0.00270863,0.01006128,0.01457010,-0.09608174,0.
 00195713,0.00059370,0.00089213,-0.01077500,-0.01584420,0.00639007,0.02
 151858,0.03162229,-0.01939358,-0.03151603,-0.00305986,-0.10836475,-0.0
 2686744,0.03640980,0.64684111,-0.00366912,0.00329664,0.01830503,-0.000
 15904,-0.00002319,-0.00140274,-0.00016576,-0.00084767,0.00053246,-0.00
 051564,0.00402333,0.00075878,-0.00092533,0.00141577,0.00016379,-0.0005
 9154,-0.00277902,-0.00099049,0.00234190,0.00676537,0.00026769,-0.00020
 563,-0.00034516,0.00054536,-0.00148831,-0.00120456,-0.00120151,-0.0013
 0538,-0.00093224,0.00268378,-0.05355518,-0.00201114,0.02331668,0.00033
 390,-0.00394864,-0.04140240,0.06154349,0.00463775,-0.00344511,-0.03114
 959,0.00066612,0.00338389,-0.00109507,-0.00249266,0.00212840,-0.000174
 20,0.00323693,-0.00467809,-0.00184121,0.00036114,0.00045144,0.00046159
 ,0.00096916,-0.00267116,-0.00132241,-0.00199532,0.00382535,0.00010461,
 -0.00047987,-0.00001254,0.00061931,0.00052519,-0.00060229,0.00048758,0
 .00104917,-0.00014863,-0.00045320,-0.00491080,-0.05548972,0.00448921,-
 0.00042523,-0.00024733,-0.00116870,-0.00064049,0.05738069,0.00768755,-
 0.00835343,-0.00958067,-0.00164871,0.00455241,0.00057682,0.00364541,-0
 .00020220,0.00370360,-0.00187802,0.00030079,0.00137607,-0.00007716,0.0
 0049149,-0.00047592,-0.00103433,-0.00196295,-0.00006056,0.00557492,0.0
 0764836,0.00193856,-0.00072778,-0.00163115,0.00042835,-0.00235491,-0.0
 0197172,-0.00155362,-0.00119750,-0.00165288,0.00223548,0.01951403,0.00
 266845,-0.32659352,-0.00781522,-0.00118975,-0.03075387,-0.02096370,0.0
 0079764,0.35459134,0.01271669,0.01436506,-0.00308424,-0.00244538,0.003
 42832,0.00154198,0.00163550,-0.00093062,0.00062356,0.00025163,0.000484
 75,-0.00101728,-0.00027742,0.00160821,-0.00007594,0.00058438,-0.000949
 99,0.00028624,-0.00479155,0.00367391,-0.00740093,-0.00049537,-0.001156
 18,0.00014254,-0.00213339,-0.00184355,0.00026124,-0.00097350,-0.001324
 62,0.00263833,-0.13199127,-0.12400582,0.03528246,-0.02113603,-0.028870
 36,0.00782031,0.00032009,-0.00182969,0.00061940,0.14235792,-0.01215124
 ,-0.02829033,0.00894153,0.00600789,-0.00181377,-0.00133909,0.00108869,
 0.00106993,0.00086485,-0.00122679,0.00274962,-0.00000135,-0.00083631,-
 0.00000402,0.00011441,-0.00123807,-0.00016059,0.00006298,0.00264867,0.
 00419894,-0.00168913,-0.00070271,-0.00125373,0.00016170,0.00044354,-0.
 00043811,-0.00000167,-0.00058322,-0.00069850,0.00202873,-0.12865527,-0
 .25979412,0.05598828,-0.00572504,0.00183096,-0.00182894,0.00123726,0.0
 0088434,0.00106669,0.13718273,0.28169069,-0.00311053,-0.01440569,-0.00
 021308,0.00179927,-0.00060894,-0.00000329,-0.00278885,0.00157690,-0.00
 219404,-0.00085080,0.00006427,0.00536630,-0.00040204,0.00131426,0.0002
 8226,-0.00044507,-0.00237677,-0.00078626,-0.00364331,0.00268526,0.0000
 8259,-0.00017488,-0.00014209,-0.00003631,0.00065268,-0.00023006,0.0008
 9402,-0.00101513,0.00019865,-0.00017032,0.04227046,0.06745024,-0.08622
 433,-0.01338536,-0.01553312,0.00360110,0.01753675,0.03065119,-0.006037
 81,-0.04215144,-0.06799080,0.08081313,0.00234190,-0.00676535,0.0002676
 8,-0.00059155,0.00277904,-0.00099050,-0.00148831,0.00120455,-0.0012015
 0,-0.00130537,0.00093222,0.00268376,-0.00020563,0.00034515,0.00054537,
 -0.00015903,0.00002319,-0.00140274,-0.00366909,-0.00329665,0.01830488,
 -0.00092532,-0.00141578,0.00016379,-0.00016577,0.00084766,0.00053246,-
 0.00051561,-0.00402332,0.00075878,0.00033391,0.00394867,-0.04140233,-0
 .05355532,0.00201113,0.02331672,-0.00619485,0.00061984,-0.00032996,0.0
 0423639,0.00338642,0.00218044,0.06154354,0.00199531,0.00382532,-0.0001
 0461,-0.00096915,-0.00267116,0.00132241,-0.00052519,-0.00060228,-0.000
 48759,-0.00104917,-0.00014862,0.00045322,0.00047987,-0.00001255,-0.000
 61931,-0.00066613,0.00338386,0.00109506,-0.00463774,-0.00344515,0.0311
 4971,-0.00036114,0.00045144,-0.00046159,0.00249265,0.00212842,0.000174
 21,-0.00323692,-0.00467812,0.00184121,0.00042523,-0.00024731,0.0011685
 2,0.00491081,-0.05548978,-0.00448893,-0.00061987,0.00003646,0.00015271
 ,-0.00070874,-0.00079542,0.00025405,0.00064050,0.05738050,0.00557493,-
 0.00764830,0.00193856,-0.00103437,0.00196299,-0.00006057,-0.00235491,0
 .00197170,-0.00155362,-0.00119750,0.00165286,0.00223547,-0.00072779,0.
 00163115,0.00042835,-0.00164868,-0.00455239,0.00057681,0.00768750,0.00
 835346,-0.00958065,-0.00007716,-0.00049150,-0.00047593,0.00364540,0.00
 020222,0.00370361,-0.00187803,-0.00030081,0.00137610,-0.00781525,0.001
 18975,-0.03075376,0.01951416,-0.00266821,-0.32659411,-0.00032994,-0.00
 015271,0.00425074,0.00098595,0.00071444,0.00595508,-0.02096375,-0.0007
 9791,0.35459176,-0.00479152,-0.00367392,-0.00740093,0.00058436,0.00095
 001,0.00028624,-0.00213339,0.00184354,0.00026125,-0.00097350,0.0013246
 1,0.00263833,-0.00049538,0.00115619,0.00014254,-0.00244533,-0.00342832
 ,0.00154198,0.01271669,-0.01436488,-0.00308421,-0.00027741,-0.00160822
 ,-0.00007593,0.00163550,0.00093063,0.00062357,0.00025163,-0.00048476,-
 0.00101728,-0.02113613,0.02887020,0.00782035,-0.13199244,0.12400639,0.
 03528273,0.00423641,0.00070876,0.00098596,0.00214132,-0.00087656,0.003
 52782,0.00032011,0.00182969,0.00061943,0.14235908,-0.00264871,0.004198
 90,0.00168909,0.00123810,-0.00016061,-0.00006298,-0.00044356,-0.000438
 10,0.00000167,0.00058322,-0.00069848,-0.00202871,0.00070271,-0.0012537
 3,-0.00016170,-0.00600789,-0.00181382,0.00133909,0.01215144,-0.0282903
 1,-0.00894157,0.00083631,-0.00000402,-0.00011441,-0.00108867,0.0010699
 5,-0.00086483,0.00122677,0.00274964,0.00000132,0.00572498,0.00183115,0
 .00182899,0.12865576,-0.25979316,-0.05598819,-0.00338641,-0.00079543,-
 0.00071445,0.00087655,0.00082198,-0.00290735,-0.00123728,0.00088439,-0
 .00106673,-0.13718335,0.28169167,-0.00364331,-0.00268526,0.00008259,-0
 .00044508,0.00237678,-0.00078626,0.00065268,0.00023007,0.00089402,-0.0
 0101512,-0.00019866,-0.00017032,-0.00017488,0.00014209,-0.00003631,0.0
 0179925,0.00060896,-0.00000330,-0.00311060,0.01440571,-0.00021310,-0.0
 0040204,-0.00131426,0.00028226,-0.00278883,-0.00157692,-0.00219403,-0.
 00085081,-0.00006430,0.00536631,-0.01338544,0.01553306,0.00360110,0.04
 227084,-0.06745020,-0.08622450,0.00218046,-0.00025404,0.00595509,0.003
 52782,0.00290736,-0.00132905,0.01753691,-0.03065116,-0.00603784,-0.042
 15185,0.06799074,0.08081334\\0.00000158,0.00000757,0.00000304,-0.00000
 701,0.00000119,-0.00000120,0.00000871,-0.00000327,0.00000513,0.0000014
 9,-0.00000219,-0.00000801,-0.00000075,-0.00000030,-0.00000001,0.000007
 05,0.00000124,0.00000120,-0.00000180,0.00000759,-0.00000311,0.00000072
 ,-0.00000038,0.00000001,-0.00000862,-0.00000325,-0.00000510,-0.0000014
 8,-0.00000220,0.00000810,-0.00001048,-0.00000079,0.00001668,0.00001055
 ,-0.00000083,-0.00001686,0.00000543,0.00000100,0.00000481,-0.00000074,
 -0.00000315,-0.00000678,-0.00000540,0.00000101,-0.00000470,0.00000076,
 -0.00000325,0.00000681\\\@


 I LOVE MANKIND - IT'S PEOPLE I CAN'T STAND.
     -- LINUS OF PEANUTS
 Job cpu time:       0 days  0 hours  0 minutes  0.9 seconds.
 Elapsed time:       0 days  0 hours  0 minutes 19.6 seconds.
 File lengths (MBytes):  RWF=     22 Int=      0 D2E=      0 Chk=      2 Scr=      2
 Normal termination of Gaussian 16 at Mon May 26 08:18:25 2025.
