 Entering Gaussian System, Link 0=/mlatom/software/Gaussian/g16-avx2/g16
 Input=gaussian.com
 Output=gaussian.log
 Initial command:
 /mlatom/software/Gaussian/g16-avx2/l1.exe "/mlatom/projects/yaohuang/ADL/C60/opt/al2/r/Gau-97063.inp" -scrdir="/mlatom/projects/yaohuang/ADL/C60/opt/al2/r/"
 Entering Link 1 = /mlatom/software/Gaussian/g16-avx2/l1.exe PID=     97064.
  
 Copyright (c) 1988,1990,1992,1993,1995,1998,2003,2009,2016,
            Gaussian, Inc.  All Rights Reserved.
  
 This is part of the Gaussian(R) 16 program.  It is based on
 the Gaussian(R) 09 system (copyright 2009, Gaussian, Inc.),
 the Gaussian(R) 03 system (copyright 2003, Gaussian, Inc.),
 the Gaussian(R) 98 system (copyright 1998, Gaussian, Inc.),
 the Gaussian(R) 94 system (copyright 1995, Gaussian, Inc.),
 the Gaussian 92(TM) system (copyright 1992, Gaussian, Inc.),
 the Gaussian 90(TM) system (copyright 1990, Gaussian, Inc.),
 the Gaussian 88(TM) system (copyright 1988, Gaussian, Inc.),
 the Gaussian 86(TM) system (copyright 1986, Carnegie Mellon
 University), and the Gaussian 82(TM) system (copyright 1983,
 Carnegie Mellon University). Gaussian is a federally registered
 trademark of Gaussian, Inc.
  
 This software contains proprietary and confidential information,
 including trade secrets, belonging to Gaussian, Inc.
  
 This software is provided under written license and may be
 used, copied, transmitted, or stored only in accord with that
 written license.
  
 The following legend is applicable only to US Government
 contracts under FAR:
  
                    RESTRICTED RIGHTS LEGEND
  
 Use, reproduction and disclosure by the US Government is
 subject to restrictions as set forth in subparagraphs (a)
 and (c) of the Commercial Computer Software - Restricted
 Rights clause in FAR 52.227-19.
  
 Gaussian, Inc.
 340 Quinnipiac St., Bldg. 40, Wallingford CT 06492
  
  
 ---------------------------------------------------------------
 Warning -- This program may not be used in any manner that
 competes with the business of Gaussian, Inc. or will provide
 assistance to any competitor of Gaussian, Inc.  The licensee
 of this program is prohibited from giving any competitor of
 Gaussian, Inc. access to this program.  By using this program,
 the user acknowledges that Gaussian, Inc. is engaged in the
 business of creating and licensing software in the field of
 computational chemistry and represents and warrants to the
 licensee that it is not a competitor of Gaussian, Inc. and that
 it will not use this program in any manner prohibited above.
 ---------------------------------------------------------------
  

 Cite this work as:
 Gaussian 16, Revision A.03,
 M. J. Frisch, G. W. Trucks, H. B. Schlegel, G. E. Scuseria, 
 M. A. Robb, J. R. Cheeseman, G. Scalmani, V. Barone, 
 G. A. Petersson, H. Nakatsuji, X. Li, M. Caricato, A. V. Marenich, 
 J. Bloino, B. G. Janesko, R. Gomperts, B. Mennucci, H. P. Hratchian, 
 J. V. Ortiz, A. F. Izmaylov, J. L. Sonnenberg, D. Williams-Young, 
 F. Ding, F. Lipparini, F. Egidi, J. Goings, B. Peng, A. Petrone, 
 T. Henderson, D. Ranasinghe, V. G. Zakrzewski, J. Gao, N. Rega, 
 G. Zheng, W. Liang, M. Hada, M. Ehara, K. Toyota, R. Fukuda, 
 J. Hasegawa, M. Ishida, T. Nakajima, Y. Honda, O. Kitao, H. Nakai, 
 T. Vreven, K. Throssell, J. A. Montgomery, Jr., J. E. Peralta, 
 F. Ogliaro, M. J. Bearpark, J. J. Heyd, E. N. Brothers, K. N. Kudin, 
 V. N. Staroverov, T. A. Keith, R. Kobayashi, J. Normand, 
 K. Raghavachari, A. P. Rendell, J. C. Burant, S. S. Iyengar, 
 J. Tomasi, M. Cossi, J. M. Millam, M. Klene, C. Adamo, R. Cammi, 
 J. W. Ochterski, R. L. Martin, K. Morokuma, O. Farkas, 
 J. B. Foresman, and D. J. Fox, Gaussian, Inc., Wallingford CT, 2016.
 
 ******************************************
 Gaussian 16:  ES64L-G16RevA.03 25-Dec-2016
                11-Jun-2025 
 ******************************************
 %nproc=1
 Will use up to    1 processors via shared memory.
 ----------------------------------------------------------------------
 #p Freq external='/mlatom/software/miniconda3/bin/python /mlatom/softw
 are/mlatom_xacs/mlatom/interfaces/gaussian_interface.py model_predict_
 kwargs'
 ----------------------------------------------------------------------
 1/10=4,18=10,30=1,38=1/1,3;
 2/12=2,17=6,18=5,40=1/2;
 3/11=9,25=1,30=1,41=9900000,43=2,71=2,140=1/1;
 4/20=17,22=2,24=3,113=1,114=1/2;
 6/7=2,8=2,9=2,10=2/1;
 7/8=1,25=1,44=-1/16;
 1/10=4,18=10,30=1/3;
 99//99;
 Leave Link    1 at Wed Jun 11 09:17:07 2025, MaxMem=           0 cpu:               0.0 elap:               0.1
 (Enter /mlatom/software/Gaussian/g16-avx2/l101.exe)
 ------------------------------------
 148770ea-7eea-4d51-9cf6-2f972e37613c
 ------------------------------------
 Symbolic Z-matrix:
 Charge =  0 Multiplicity = 1
 C                    -2.08138   2.92754  -1.48173 
 C                    -0.73342   2.90744  -2.01565 
 C                    -0.36468   1.93149  -2.93848 
 C                    -1.32684   0.93406  -3.36258 
 C                    -2.62165   0.9528   -2.84947 
 C                    -3.00642   1.96949  -1.8903 
 C                    -2.0047    3.31244  -0.08604 
 C                    -0.6094    3.5305    0.24271 
 C                     0.17543   3.28011  -0.9496 
 C                     1.41863   2.66101  -0.84713 
 C                     0.93018   1.28798  -2.83334 
 C                    -0.62709  -0.32613  -3.5185 
 C                    -1.24881  -1.51819  -3.15494 
 C                    -2.59684  -1.49864  -2.62152 
 C                    -3.26935  -0.28795  -2.47166 
 C                    -4.05513  -0.03793  -1.2792 
 C                    -3.89257   1.3572   -0.91985 
 C                    -3.81899   1.72705   0.42111 
 C                    -2.85624   2.72423   0.84632 
 C                    -0.12099   3.15305   1.4912 
 C                    -1.00708   2.54028   2.46123 
 C                    -2.34749   2.33034   2.14546 
 C                    -2.99541   1.08959   2.52303 
 C                    -3.90502   0.7168    1.45739 
 C                    -4.06135  -0.62367   1.11214 
 C                    -4.1379   -1.0086   -0.28352 
 C                    -3.43834  -2.26881  -0.43978 
 C                    -2.68298  -2.50878  -1.58537 
 C                     0.7675   -0.10819  -3.19217 
 C                     0.49477  -3.31383   0.0979 
 C                     1.34805  -2.72691  -0.83527 
 C                     2.30779  -1.7295   -0.40824 
 C                     2.37824  -1.35883   0.92954 
 C                     1.49658  -1.97166   1.90303 
 C                    -0.77655  -2.90947   2.02747 
 C                    -1.6859   -3.28182   0.96175 
 C                    -0.89987  -3.53165  -0.23074 
 C                    -1.38828  -3.15245  -1.47877 
 C                    -0.50198  -2.53984  -2.44827 
 C                     0.83927  -2.33146  -2.13421 
 C                     2.62396   1.00727   0.29462 
 C                     2.53559   0.03756   1.28676 
 C                     1.75659   0.28738   2.48188 
 C                     1.11214  -0.95415   2.861 
 C                    -0.18322  -0.93486   3.37332 
 C                    -1.14594  -1.93188   2.9486 
 C                    -2.92963  -2.66289   0.85938 
 C                    -3.31453  -1.64607   1.81848 
 C                    -2.44051  -1.28789   2.8423 
 C                    -2.27772   0.10723   3.20154 
 C                    -0.88248   0.3255    3.52969 
 C                    -0.26055   1.5184    3.16771 
 C                     1.08719   1.49928   2.63468 
 C                     1.17353   2.50914   1.59724 
 C                     1.92571   2.26644   0.45085 
 C                     1.48577  -1.09127  -2.51241 
 C                     1.80138   1.64497  -1.8078 
 C                     0.57114  -2.9298    1.49368 
 C                     2.39255  -0.71621  -1.44587 
 C                     2.54345   0.62135  -1.10222 
 C                     5.89337   0.75933  -0.18787 
 C                     5.90974  -0.74521  -0.18065 
 C                     6.17083   1.4748    1.1147 
 H                     6.1495    2.56103   0.98622 
 H                     5.41959   1.21542   1.87208 
 H                     7.15235   1.21242   1.52731 
 C                     6.20024  -1.44525   1.12724 
 H                     6.1847   -2.5322    0.99941 
 H                     7.18498  -1.18103   1.53695 
 H                     5.45682  -1.19648   1.89886 
 C                     5.63327  -1.50619  -1.25753 
 H                     5.40685  -1.092    -2.23375 
 H                     5.65151  -2.58917  -1.18894 
 C                     5.59868   1.49089  -1.27486 
 H                     5.56489   2.57596  -1.22969 
 H                     5.38272   1.04423  -2.23882 
 
 ITRead=  0  0  0  0  0  0  0  0  0  0  0  0  0  0  0  0  0  0  0  0
 ITRead=  0  0  0  0  0  0  0  0  0  0  0  0  0  0  0  0  0  0  0  0
 ITRead=  0  0  0  0  0  0  0  0  0  0  0  0  0  0  0  0  0  0  0  0
 ITRead=  0  0  0  0  0  0  0  0  0  0  0  0  0  0  0  0
 MicOpt= -1 -1 -1 -1 -1 -1 -1 -1 -1 -1 -1 -1 -1 -1 -1 -1 -1 -1 -1 -1
 MicOpt= -1 -1 -1 -1 -1 -1 -1 -1 -1 -1 -1 -1 -1 -1 -1 -1 -1 -1 -1 -1
 MicOpt= -1 -1 -1 -1 -1 -1 -1 -1 -1 -1 -1 -1 -1 -1 -1 -1 -1 -1 -1 -1
 MicOpt= -1 -1 -1 -1 -1 -1 -1 -1 -1 -1 -1 -1 -1 -1 -1 -1
 NAtoms=     76 NQM=       76 NQMF=       0 NMMI=      0 NMMIF=      0
                NMic=       0 NMicF=      0.
                    Isotopes and Nuclear Properties:
 (Nuclear quadrupole moments (NQMom) in fm**2, nuclear magnetic moments (NMagM)
  in nuclear magnetons)

  Atom         1           2           3           4           5           6           7           8           9          10
 IAtWgt=          12          12          12          12          12          12          12          12          12          12
 AtmWgt=  12.0000000  12.0000000  12.0000000  12.0000000  12.0000000  12.0000000  12.0000000  12.0000000  12.0000000  12.0000000
 NucSpn=           0           0           0           0           0           0           0           0           0           0
 AtZEff=  -0.0000000  -0.0000000  -0.0000000  -0.0000000  -0.0000000  -0.0000000  -0.0000000  -0.0000000  -0.0000000  -0.0000000
 NQMom=    0.0000000   0.0000000   0.0000000   0.0000000   0.0000000   0.0000000   0.0000000   0.0000000   0.0000000   0.0000000
 NMagM=    0.0000000   0.0000000   0.0000000   0.0000000   0.0000000   0.0000000   0.0000000   0.0000000   0.0000000   0.0000000
 AtZNuc=   6.0000000   6.0000000   6.0000000   6.0000000   6.0000000   6.0000000   6.0000000   6.0000000   6.0000000   6.0000000

  Atom        11          12          13          14          15          16          17          18          19          20
 IAtWgt=          12          12          12          12          12          12          12          12          12          12
 AtmWgt=  12.0000000  12.0000000  12.0000000  12.0000000  12.0000000  12.0000000  12.0000000  12.0000000  12.0000000  12.0000000
 NucSpn=           0           0           0           0           0           0           0           0           0           0
 AtZEff=  -0.0000000  -0.0000000  -0.0000000  -0.0000000  -0.0000000  -0.0000000  -0.0000000  -0.0000000  -0.0000000  -0.0000000
 NQMom=    0.0000000   0.0000000   0.0000000   0.0000000   0.0000000   0.0000000   0.0000000   0.0000000   0.0000000   0.0000000
 NMagM=    0.0000000   0.0000000   0.0000000   0.0000000   0.0000000   0.0000000   0.0000000   0.0000000   0.0000000   0.0000000
 AtZNuc=   6.0000000   6.0000000   6.0000000   6.0000000   6.0000000   6.0000000   6.0000000   6.0000000   6.0000000   6.0000000

  Atom        21          22          23          24          25          26          27          28          29          30
 IAtWgt=          12          12          12          12          12          12          12          12          12          12
 AtmWgt=  12.0000000  12.0000000  12.0000000  12.0000000  12.0000000  12.0000000  12.0000000  12.0000000  12.0000000  12.0000000
 NucSpn=           0           0           0           0           0           0           0           0           0           0
 AtZEff=  -0.0000000  -0.0000000  -0.0000000  -0.0000000  -0.0000000  -0.0000000  -0.0000000  -0.0000000  -0.0000000  -0.0000000
 NQMom=    0.0000000   0.0000000   0.0000000   0.0000000   0.0000000   0.0000000   0.0000000   0.0000000   0.0000000   0.0000000
 NMagM=    0.0000000   0.0000000   0.0000000   0.0000000   0.0000000   0.0000000   0.0000000   0.0000000   0.0000000   0.0000000
 AtZNuc=   6.0000000   6.0000000   6.0000000   6.0000000   6.0000000   6.0000000   6.0000000   6.0000000   6.0000000   6.0000000

  Atom        31          32          33          34          35          36          37          38          39          40
 IAtWgt=          12          12          12          12          12          12          12          12          12          12
 AtmWgt=  12.0000000  12.0000000  12.0000000  12.0000000  12.0000000  12.0000000  12.0000000  12.0000000  12.0000000  12.0000000
 NucSpn=           0           0           0           0           0           0           0           0           0           0
 AtZEff=  -0.0000000  -0.0000000  -0.0000000  -0.0000000  -0.0000000  -0.0000000  -0.0000000  -0.0000000  -0.0000000  -0.0000000
 NQMom=    0.0000000   0.0000000   0.0000000   0.0000000   0.0000000   0.0000000   0.0000000   0.0000000   0.0000000   0.0000000
 NMagM=    0.0000000   0.0000000   0.0000000   0.0000000   0.0000000   0.0000000   0.0000000   0.0000000   0.0000000   0.0000000
 AtZNuc=   6.0000000   6.0000000   6.0000000   6.0000000   6.0000000   6.0000000   6.0000000   6.0000000   6.0000000   6.0000000

  Atom        41          42          43          44          45          46          47          48          49          50
 IAtWgt=          12          12          12          12          12          12          12          12          12          12
 AtmWgt=  12.0000000  12.0000000  12.0000000  12.0000000  12.0000000  12.0000000  12.0000000  12.0000000  12.0000000  12.0000000
 NucSpn=           0           0           0           0           0           0           0           0           0           0
 AtZEff=  -0.0000000  -0.0000000  -0.0000000  -0.0000000  -0.0000000  -0.0000000  -0.0000000  -0.0000000  -0.0000000  -0.0000000
 NQMom=    0.0000000   0.0000000   0.0000000   0.0000000   0.0000000   0.0000000   0.0000000   0.0000000   0.0000000   0.0000000
 NMagM=    0.0000000   0.0000000   0.0000000   0.0000000   0.0000000   0.0000000   0.0000000   0.0000000   0.0000000   0.0000000
 AtZNuc=   6.0000000   6.0000000   6.0000000   6.0000000   6.0000000   6.0000000   6.0000000   6.0000000   6.0000000   6.0000000

  Atom        51          52          53          54          55          56          57          58          59          60
 IAtWgt=          12          12          12          12          12          12          12          12          12          12
 AtmWgt=  12.0000000  12.0000000  12.0000000  12.0000000  12.0000000  12.0000000  12.0000000  12.0000000  12.0000000  12.0000000
 NucSpn=           0           0           0           0           0           0           0           0           0           0
 AtZEff=  -0.0000000  -0.0000000  -0.0000000  -0.0000000  -0.0000000  -0.0000000  -0.0000000  -0.0000000  -0.0000000  -0.0000000
 NQMom=    0.0000000   0.0000000   0.0000000   0.0000000   0.0000000   0.0000000   0.0000000   0.0000000   0.0000000   0.0000000
 NMagM=    0.0000000   0.0000000   0.0000000   0.0000000   0.0000000   0.0000000   0.0000000   0.0000000   0.0000000   0.0000000
 AtZNuc=   6.0000000   6.0000000   6.0000000   6.0000000   6.0000000   6.0000000   6.0000000   6.0000000   6.0000000   6.0000000

  Atom        61          62          63          64          65          66          67          68          69          70
 IAtWgt=          12          12          12           1           1           1          12           1           1           1
 AtmWgt=  12.0000000  12.0000000  12.0000000   1.0078250   1.0078250   1.0078250  12.0000000   1.0078250   1.0078250   1.0078250
 NucSpn=           0           0           0           1           1           1           0           1           1           1
 AtZEff=  -0.0000000  -0.0000000  -0.0000000  -0.0000000  -0.0000000  -0.0000000  -0.0000000  -0.0000000  -0.0000000  -0.0000000
 NQMom=    0.0000000   0.0000000   0.0000000   0.0000000   0.0000000   0.0000000   0.0000000   0.0000000   0.0000000   0.0000000
 NMagM=    0.0000000   0.0000000   0.0000000   2.7928460   2.7928460   2.7928460   0.0000000   2.7928460   2.7928460   2.7928460
 AtZNuc=   6.0000000   6.0000000   6.0000000   1.0000000   1.0000000   1.0000000   6.0000000   1.0000000   1.0000000   1.0000000

  Atom        71          72          73          74          75          76
 IAtWgt=          12           1           1          12           1           1
 AtmWgt=  12.0000000   1.0078250   1.0078250  12.0000000   1.0078250   1.0078250
 NucSpn=           0           1           1           0           1           1
 AtZEff=  -0.0000000  -0.0000000  -0.0000000  -0.0000000  -0.0000000  -0.0000000
 NQMom=    0.0000000   0.0000000   0.0000000   0.0000000   0.0000000   0.0000000
 NMagM=    0.0000000   2.7928460   2.7928460   0.0000000   2.7928460   2.7928460
 AtZNuc=   6.0000000   1.0000000   1.0000000   6.0000000   1.0000000   1.0000000
 Leave Link  101 at Wed Jun 11 09:17:07 2025, MaxMem=   104857600 cpu:               0.2 elap:               0.3
 (Enter /mlatom/software/Gaussian/g16-avx2/l103.exe)

 GradGradGradGradGradGradGradGradGradGradGradGradGradGradGradGradGradGrad
 Berny optimization.
 Initialization pass.
 Trust Radius=3.00D-01 FncErr=1.00D-07 GrdErr=1.00D-07 EigMax=2.50D+02 EigMin=1.00D-04
 Number of steps in this run=      2 maximum allowed number of steps=      2.
 GradGradGradGradGradGradGradGradGradGradGradGradGradGradGradGradGradGrad

 Leave Link  103 at Wed Jun 11 09:17:07 2025, MaxMem=   104857600 cpu:               0.0 elap:               0.1
 (Enter /mlatom/software/Gaussian/g16-avx2/l202.exe)
 Stoichiometry    C66H10
 Framework group  C1[X(C66H10)]
 Deg. of freedom   222
 Full point group                 C1      NOp   1
 Largest Abelian subgroup         C1      NOp   1
 Largest concise Abelian subgroup C1      NOp   1
                         Standard orientation:                         
 ---------------------------------------------------------------------
 Center     Atomic      Atomic             Coordinates (Angstroms)
 Number     Number       Type             X           Y           Z
 ---------------------------------------------------------------------
      1          6           0        2.081376   -2.927535   -1.481728
      2          6           0        0.733419   -2.907436   -2.015645
      3          6           0        0.364679   -1.931493   -2.938475
      4          6           0        1.326843   -0.934061   -3.362578
      5          6           0        2.621647   -0.952804   -2.849474
      6          6           0        3.006419   -1.969488   -1.890297
      7          6           0        2.004699   -3.312441   -0.086044
      8          6           0        0.609403   -3.530496    0.242708
      9          6           0       -0.175430   -3.280107   -0.949603
     10          6           0       -1.418633   -2.661006   -0.847131
     11          6           0       -0.930177   -1.287983   -2.833344
     12          6           0        0.627094    0.326133   -3.518504
     13          6           0        1.248815    1.518188   -3.154943
     14          6           0        2.596840    1.498640   -2.621520
     15          6           0        3.269347    0.287949   -2.471659
     16          6           0        4.055133    0.037935   -1.279203
     17          6           0        3.892571   -1.357202   -0.919854
     18          6           0        3.818992   -1.727054    0.421111
     19          6           0        2.856240   -2.724232    0.846319
     20          6           0        0.120989   -3.153054    1.491195
     21          6           0        1.007082   -2.540282    2.461233
     22          6           0        2.347486   -2.330344    2.145461
     23          6           0        2.995408   -1.089590    2.523031
     24          6           0        3.905019   -0.716800    1.457392
     25          6           0        4.061350    0.623675    1.112139
     26          6           0        4.137898    1.008596   -0.283524
     27          6           0        3.438344    2.268815   -0.439782
     28          6           0        2.682984    2.508781   -1.585375
     29          6           0       -0.767502    0.108186   -3.192168
     30          6           0       -0.494774    3.313831    0.097902
     31          6           0       -1.348052    2.726912   -0.835268
     32          6           0       -2.307793    1.729500   -0.408239
     33          6           0       -2.378244    1.358833    0.929538
     34          6           0       -1.496576    1.971658    1.903032
     35          6           0        0.776547    2.909469    2.027474
     36          6           0        1.685901    3.281815    0.961750
     37          6           0        0.899873    3.531655   -0.230743
     38          6           0        1.388277    3.152451   -1.478768
     39          6           0        0.501979    2.539840   -2.448271
     40          6           0       -0.839269    2.331457   -2.134208
     41          6           0       -2.623959   -1.007265    0.294623
     42          6           0       -2.535588   -0.037559    1.286759
     43          6           0       -1.756587   -0.287381    2.481883
     44          6           0       -1.112138    0.954148    2.860997
     45          6           0        0.183222    0.934860    3.373318
     46          6           0        1.145937    1.931881    2.948600
     47          6           0        2.929628    2.662890    0.859378
     48          6           0        3.314534    1.646074    1.818479
     49          6           0        2.440514    1.287889    2.842301
     50          6           0        2.277722   -0.107233    3.201544
     51          6           0        0.882475   -0.325503    3.529690
     52          6           0        0.260553   -1.518403    3.167712
     53          6           0       -1.087192   -1.499282    2.634683
     54          6           0       -1.173531   -2.509136    1.597238
     55          6           0       -1.925714   -2.266438    0.450849
     56          6           0       -1.485769    1.091269   -2.512412
     57          6           0       -1.801377   -1.644972   -1.807803
     58          6           0       -0.571141    2.929797    1.493679
     59          6           0       -2.392551    0.716206   -1.445871
     60          6           0       -2.543452   -0.621349   -1.102220
     61          6           0       -5.893374   -0.759332   -0.187874
     62          6           0       -5.909742    0.745211   -0.180648
     63          6           0       -6.170834   -1.474801    1.114700
     64          1           0       -6.149500   -2.561031    0.986216
     65          1           0       -5.419594   -1.215417    1.872082
     66          1           0       -7.152349   -1.212420    1.527312
     67          6           0       -6.200240    1.445249    1.127240
     68          1           0       -6.184701    2.532203    0.999413
     69          1           0       -7.184982    1.181030    1.536946
     70          1           0       -5.456816    1.196483    1.898856
     71          6           0       -5.633268    1.506193   -1.257527
     72          1           0       -5.406851    1.092002   -2.233747
     73          1           0       -5.651506    2.589173   -1.188940
     74          6           0       -5.598683   -1.490893   -1.274855
     75          1           0       -5.564888   -2.575964   -1.229693
     76          1           0       -5.382723   -1.044232   -2.238823
 ---------------------------------------------------------------------
 Rotational constants (GHZ):           0.0805779           0.0537944           0.0534669
 Leave Link  202 at Wed Jun 11 09:17:08 2025, MaxMem=   104857600 cpu:               0.0 elap:               0.1
 (Enter /mlatom/software/Gaussian/g16-avx2/l301.exe)
 Standard basis: STO-3G (5D, 7F)
 Ernie: Thresh=  0.10000D-02 Tol=  0.10000D-05 Strict=F.
 There are   340 symmetry adapted cartesian basis functions of A   symmetry.
 There are   340 symmetry adapted basis functions of A   symmetry.
   340 basis functions,  1020 primitive gaussians,   340 cartesian basis functions
   203 alpha electrons      203 beta electrons
       nuclear repulsion energy      9840.6177350462 Hartrees.
 IExCor=    0 DFT=F Ex=HF Corr=None ExCW=0 ScaHFX=  1.000000
 ScaDFX=  1.000000  1.000000  1.000000  1.000000 ScalE2=  1.000000  1.000000
 IRadAn=      5 IRanWt=     -1 IRanGd=            0 ICorTp=0 IEmpDi=  4
 NAtoms=   76 NActive=   76 NUniq=   76 SFac= 1.00D+00 NAtFMM=   60 NAOKFM=T Big=T
 Integral buffers will be    131072 words long.
 Raffenetti 1 integral format.
 Two-electron integral symmetry is turned on.
 Leave Link  301 at Wed Jun 11 09:17:08 2025, MaxMem=   104857600 cpu:               0.0 elap:               0.1
 (Enter /mlatom/software/Gaussian/g16-avx2/l402.exe)
 External calculation of energy, first and second derivatives.
 Running external command "/mlatom/software/miniconda3/bin/python /mlatom/software/mlatom_xacs/mlatom/interfaces/gaussian_interface.py model_predict_kwargs R"
         input file       "/mlatom/projects/yaohuang/ADL/C60/opt/al2/r/Gau-97064.EIn"
         output file      "/mlatom/projects/yaohuang/ADL/C60/opt/al2/r/Gau-97064.EOu"
         message file     "/mlatom/projects/yaohuang/ADL/C60/opt/al2/r/Gau-97064.EMs"
         fchk file        "/mlatom/projects/yaohuang/ADL/C60/opt/al2/r/Gau-97064.EFC"
         mat. el file     "/mlatom/projects/yaohuang/ADL/C60/opt/al2/r/Gau-97064.EUF"
model loaded from /mlatom/projects/yaohuang/ADL/C60/opt/al2/AL_main_model_C60_butadiene.npz
 Recovered energy= -2521.17397667     dipole=      0.000000000000      0.000000000000      0.000000000000
 Energy=    -2521.17398     NIter=   0.
 Dipole moment=       0.000000       0.000000       0.000000
 Leave Link  402 at Wed Jun 11 09:17:16 2025, MaxMem=   104857600 cpu:               0.1 elap:               7.9
 (Enter /mlatom/software/Gaussian/g16-avx2/l601.exe)
 Leave Link  601 at Wed Jun 11 09:17:16 2025, MaxMem=   104857600 cpu:               0.0 elap:               0.2
 (Enter /mlatom/software/Gaussian/g16-avx2/l716.exe)
 Dipole        = 0.00000000D+00 0.00000000D+00 0.00000000D+00
 Full mass-weighted force constant matrix:
 Low frequencies ---   -0.4108   -0.3846   -0.2436   -0.1766    0.0384    0.1761
 Low frequencies ---   24.1820   29.2130   43.5023
 Diagonal vibrational polarizability:
        0.0000000       0.0000000       0.0000000
 Harmonic frequencies (cm**-1), IR intensities (KM/Mole), Raman scattering
 activities (A**4/AMU), depolarization ratios for plane and unpolarized
 incident light, reduced masses (AMU), force constants (mDyne/A),
 and normal coordinates:
                      1                      2                      3
                      A                      A                      A
 Frequencies --     24.1820                29.2130                43.5023
 Red. masses --      4.6502                 4.4235                 5.9231
 Frc consts  --      0.0016                 0.0022                 0.0066
 IR Inten    --      0.0000                 0.0000                 0.0000
  Atom  AN      X      Y      Z        X      Y      Z        X      Y      Z
     1   6     0.04   0.01  -0.01    -0.02   0.00  -0.01     0.04  -0.00   0.01
     2   6     0.04  -0.01  -0.01    -0.01   0.02  -0.02     0.05  -0.01  -0.02
     3   6     0.03  -0.01  -0.01     0.00   0.02  -0.02     0.06  -0.01  -0.02
     4   6     0.02   0.00  -0.00     0.01   0.02  -0.01     0.06  -0.01  -0.01
     5   6     0.02   0.02  -0.00     0.01   0.01   0.00     0.05  -0.00   0.01
     6   6     0.03   0.02  -0.01    -0.01  -0.00  -0.00     0.04   0.00   0.02
     7   6     0.05   0.00  -0.01    -0.03  -0.00  -0.01     0.02   0.00   0.01
     8   6     0.05  -0.02  -0.01    -0.03   0.01  -0.02     0.01  -0.00  -0.02
     9   6     0.05  -0.02  -0.01    -0.02   0.02  -0.03     0.03  -0.01  -0.03
    10   6     0.04  -0.04  -0.01    -0.02   0.03  -0.03     0.02  -0.01  -0.05
    11   6     0.02  -0.03  -0.00     0.01   0.04  -0.02     0.05  -0.02  -0.05
    12   6    -0.00  -0.01   0.00     0.02   0.03  -0.01     0.06  -0.01  -0.02
    13   6    -0.02   0.00   0.00     0.03   0.02   0.00     0.05  -0.01  -0.02
    14   6    -0.02   0.02   0.00     0.03   0.01   0.01     0.04  -0.00   0.01
    15   6    -0.00   0.03   0.00     0.02  -0.00   0.01     0.04  -0.00   0.02
    16   6     0.00   0.03   0.00     0.01  -0.01   0.01     0.02   0.01   0.04
    17   6     0.02   0.03  -0.00    -0.01  -0.01   0.01     0.02   0.01   0.04
    18   6     0.03   0.03  -0.00    -0.02  -0.02   0.01     0.00   0.01   0.04
    19   6     0.04   0.01  -0.01    -0.03  -0.01  -0.01    -0.00   0.01   0.02
    20   6     0.04  -0.03  -0.01    -0.04   0.01  -0.03    -0.01  -0.00  -0.03
    21   6     0.04  -0.02  -0.01    -0.04  -0.00  -0.02    -0.03   0.00  -0.01
    22   6     0.03  -0.00  -0.01    -0.04  -0.01  -0.01    -0.03   0.01   0.01
    23   6     0.02   0.01  -0.00    -0.03  -0.02   0.00    -0.04   0.01   0.02
    24   6     0.01   0.02  -0.00    -0.02  -0.02   0.01    -0.02   0.01   0.04
    25   6    -0.01   0.03   0.00    -0.00  -0.02   0.02    -0.02   0.01   0.04
    26   6    -0.01   0.03   0.00     0.01  -0.02   0.02     0.00   0.01   0.04
    27   6    -0.03   0.02   0.01     0.02  -0.01   0.02    -0.00   0.00   0.02
    28   6    -0.03   0.02   0.01     0.03   0.00   0.01     0.02  -0.00   0.01
    29   6     0.00  -0.03  -0.00     0.02   0.04  -0.02     0.05  -0.02  -0.05
    30   6    -0.04  -0.03   0.01     0.02   0.02  -0.00    -0.01  -0.01  -0.05
    31   6    -0.03  -0.04   0.01     0.02   0.03  -0.01     0.01  -0.02  -0.06
    32   6    -0.02  -0.06   0.00     0.01   0.04  -0.02     0.00  -0.02  -0.08
    33   6    -0.02  -0.06   0.00     0.00   0.03  -0.02    -0.02  -0.01  -0.08
    34   6    -0.03  -0.05   0.00     0.00   0.02  -0.01    -0.04  -0.01  -0.06
    35   6    -0.04  -0.02   0.01     0.01   0.00   0.00    -0.05   0.00  -0.03
    36   6    -0.04  -0.01   0.01     0.02  -0.00   0.01    -0.03   0.00  -0.01
    37   6    -0.05  -0.01   0.01     0.03   0.01   0.01    -0.01  -0.00  -0.03
    38   6    -0.04  -0.00   0.01     0.03   0.01   0.01     0.01  -0.01  -0.02
    39   6    -0.03  -0.01   0.01     0.04   0.02   0.00     0.03  -0.01  -0.03
    40   6    -0.03  -0.03   0.01     0.03   0.03  -0.01     0.03  -0.02  -0.05
    41   6     0.01  -0.06  -0.00    -0.00   0.04  -0.03    -0.00  -0.02  -0.08
    42   6    -0.00  -0.06  -0.00    -0.01   0.03  -0.03    -0.01  -0.02  -0.08
    43   6     0.00  -0.06  -0.00    -0.02   0.02  -0.02    -0.04  -0.01  -0.06
    44   6    -0.01  -0.05   0.00    -0.01   0.02  -0.02    -0.05  -0.01  -0.05
    45   6    -0.01  -0.03   0.00    -0.02   0.00  -0.01    -0.06   0.00  -0.03
    46   6    -0.03  -0.02   0.01    -0.00  -0.00   0.00    -0.06   0.00  -0.02
    47   6    -0.04   0.01   0.01     0.01  -0.01   0.02    -0.02   0.01   0.01
    48   6    -0.02   0.01   0.01     0.00  -0.02   0.02    -0.04   0.01   0.02
    49   6    -0.02  -0.00   0.00    -0.01  -0.02   0.01    -0.05   0.01   0.01
    50   6     0.00  -0.00  -0.00    -0.02  -0.02   0.00    -0.05   0.01   0.01
    51   6     0.00  -0.03  -0.00    -0.03  -0.01  -0.01    -0.06   0.00  -0.02
    52   6     0.02  -0.03  -0.01    -0.04   0.00  -0.02    -0.05  -0.00  -0.03
    53   6     0.02  -0.05  -0.01    -0.03   0.02  -0.03    -0.04  -0.01  -0.05
    54   6     0.04  -0.05  -0.01    -0.03   0.02  -0.03    -0.02  -0.01  -0.05
    55   6     0.03  -0.06  -0.01    -0.02   0.03  -0.04     0.00  -0.01  -0.06
    56   6    -0.01  -0.04   0.00     0.02   0.04  -0.02     0.04  -0.02  -0.06
    57   6     0.02  -0.05  -0.01    -0.00   0.04  -0.03     0.03  -0.02  -0.06
    58   6    -0.04  -0.04   0.01     0.01   0.02  -0.01    -0.04  -0.01  -0.05
    59   6    -0.01  -0.05  -0.00     0.01   0.04  -0.03     0.02  -0.02  -0.08
    60   6     0.01  -0.06  -0.00     0.00   0.04  -0.03     0.02  -0.02  -0.08
    61   6    -0.04   0.13   0.06     0.04  -0.10   0.14    -0.02   0.05   0.14
    62   6     0.01   0.13  -0.05    -0.01  -0.10  -0.00     0.00   0.05   0.22
    63   6    -0.06   0.24   0.12     0.07   0.02   0.22     0.00  -0.02   0.11
    64   1    -0.11   0.23   0.19     0.11   0.01   0.33    -0.02  -0.01   0.05
    65   1    -0.04   0.25   0.09     0.07   0.13   0.19     0.04  -0.08   0.10
    66   1    -0.04   0.31   0.11     0.06   0.03   0.20     0.02  -0.02   0.16
    67   6     0.03   0.24  -0.10    -0.02   0.02  -0.07     0.04  -0.02   0.27
    68   1     0.06   0.23  -0.19    -0.05   0.01  -0.17     0.05  -0.01   0.33
    69   1     0.02   0.29  -0.08    -0.01   0.04  -0.03     0.05  -0.03   0.28
    70   1     0.02   0.28  -0.08    -0.00   0.11  -0.05     0.06  -0.07   0.24
    71   6     0.03   0.04  -0.11    -0.05  -0.19  -0.08     0.00   0.10   0.26
    72   1     0.02  -0.04  -0.08    -0.05  -0.28  -0.04    -0.04   0.15   0.23
    73   1     0.05   0.05  -0.19    -0.08  -0.19  -0.19     0.03   0.09   0.32
    74   6    -0.06   0.04   0.12     0.06  -0.19   0.21    -0.07   0.10   0.10
    75   1    -0.11   0.04   0.20     0.11  -0.19   0.32    -0.10   0.09   0.03
    76   1    -0.03  -0.04   0.09     0.02  -0.28   0.17    -0.08   0.15   0.11
                      4                      5                      6
                      A                      A                      A
 Frequencies --     98.9790               124.0397               155.3953
 Red. masses --      3.7328                 3.0141                 3.8077
 Frc consts  --      0.0215                 0.0273                 0.0542
 IR Inten    --      0.0000                 0.0000                 0.0000
  Atom  AN      X      Y      Z        X      Y      Z        X      Y      Z
     1   6    -0.01  -0.01   0.00    -0.01   0.00   0.00    -0.02  -0.00  -0.01
     2   6    -0.01  -0.01  -0.00    -0.01   0.00   0.00    -0.01  -0.01  -0.01
     3   6    -0.01  -0.01  -0.00    -0.01   0.00   0.00    -0.01  -0.00  -0.01
     4   6    -0.01  -0.01  -0.00    -0.01   0.00   0.00    -0.01  -0.00  -0.01
     5   6    -0.02  -0.00   0.00    -0.01   0.00   0.00    -0.02   0.00  -0.01
     6   6    -0.01  -0.00   0.00    -0.01   0.00   0.00    -0.02   0.00  -0.01
     7   6    -0.01  -0.00   0.00    -0.01   0.00   0.00    -0.02  -0.00  -0.00
     8   6    -0.01  -0.01   0.00    -0.01   0.00   0.00    -0.01  -0.01  -0.00
     9   6    -0.01  -0.01  -0.00    -0.01   0.00   0.00    -0.01  -0.01  -0.00
    10   6    -0.01  -0.01  -0.00    -0.01   0.00  -0.00    -0.01  -0.01   0.00
    11   6    -0.01  -0.01  -0.00    -0.01   0.00  -0.00    -0.01  -0.00  -0.01
    12   6    -0.02  -0.01  -0.00    -0.01   0.01   0.00    -0.01   0.00  -0.01
    13   6    -0.02  -0.01  -0.00    -0.01   0.01   0.00    -0.02   0.00  -0.01
    14   6    -0.02  -0.00   0.00    -0.01   0.00   0.00    -0.02   0.00  -0.01
    15   6    -0.02  -0.00   0.00    -0.01   0.00   0.00    -0.02   0.00  -0.01
    16   6    -0.02   0.00   0.00    -0.01   0.00   0.00    -0.03   0.00  -0.01
    17   6    -0.02   0.00   0.00    -0.01   0.00   0.00    -0.03   0.00  -0.01
    18   6    -0.02   0.00   0.00    -0.01   0.00   0.00    -0.03   0.00  -0.01
    19   6    -0.01  -0.00   0.00    -0.01   0.00   0.00    -0.02   0.00  -0.01
    20   6    -0.01  -0.01   0.00    -0.01   0.00   0.00    -0.02  -0.01   0.00
    21   6    -0.01  -0.01   0.00    -0.01   0.00   0.00    -0.02  -0.00   0.00
    22   6    -0.01  -0.00   0.00    -0.01   0.00   0.00    -0.02  -0.00  -0.00
    23   6    -0.02  -0.00   0.00    -0.01   0.00   0.00    -0.02   0.00  -0.01
    24   6    -0.02   0.00   0.00    -0.01   0.00   0.00    -0.03   0.00  -0.01
    25   6    -0.02   0.00   0.00    -0.01   0.00   0.00    -0.03   0.00  -0.01
    26   6    -0.02   0.00   0.00    -0.01   0.00   0.00    -0.03   0.00  -0.01
    27   6    -0.02  -0.00   0.00    -0.01   0.00   0.00    -0.02   0.00  -0.01
    28   6    -0.02  -0.00   0.00    -0.01   0.00   0.00    -0.02   0.01  -0.01
    29   6    -0.02  -0.01  -0.00    -0.01   0.00   0.00    -0.01  -0.00  -0.01
    30   6    -0.02  -0.00   0.00    -0.00   0.01   0.00    -0.01   0.01  -0.00
    31   6    -0.02  -0.01  -0.00    -0.00   0.00   0.00    -0.00   0.00  -0.00
    32   6    -0.02  -0.01   0.00     0.00   0.00   0.00     0.01  -0.01   0.00
    33   6    -0.01  -0.01   0.00     0.00   0.00  -0.00     0.00  -0.00   0.00
    34   6    -0.02  -0.00   0.01     0.00   0.00   0.00    -0.01   0.00   0.01
    35   6    -0.02  -0.00   0.00    -0.00   0.01   0.00    -0.02   0.01   0.00
    36   6    -0.02  -0.00   0.00    -0.00   0.01   0.00    -0.02   0.01  -0.00
    37   6    -0.02  -0.00   0.00    -0.00   0.01   0.00    -0.02   0.01  -0.00
    38   6    -0.02  -0.00  -0.00    -0.00   0.01   0.00    -0.02   0.01  -0.01
    39   6    -0.02  -0.01  -0.00    -0.01   0.01   0.00    -0.01   0.01  -0.01
    40   6    -0.02  -0.01  -0.00    -0.00   0.01   0.00    -0.01   0.01  -0.01
    41   6     0.01  -0.00  -0.00    -0.01  -0.00  -0.00     0.02  -0.00   0.00
    42   6    -0.00  -0.01  -0.00     0.00   0.00  -0.00     0.01  -0.00   0.00
    43   6    -0.01  -0.01   0.01    -0.00   0.00   0.00    -0.01  -0.00   0.01
    44   6    -0.02  -0.00   0.01    -0.00   0.00   0.00    -0.01   0.00   0.01
    45   6    -0.02  -0.00   0.01    -0.00   0.00   0.00    -0.02   0.00   0.01
    46   6    -0.02  -0.00   0.00    -0.00   0.00   0.00    -0.02   0.00   0.00
    47   6    -0.02  -0.00   0.00    -0.00   0.00   0.00    -0.02   0.00  -0.01
    48   6    -0.02   0.00   0.00    -0.01   0.00   0.00    -0.02   0.00  -0.01
    49   6    -0.02  -0.00   0.00    -0.01   0.00   0.00    -0.02   0.00  -0.00
    50   6    -0.02  -0.00   0.00    -0.01   0.00   0.00    -0.02   0.00  -0.00
    51   6    -0.02  -0.00   0.00    -0.01   0.00   0.00    -0.02  -0.00   0.00
    52   6    -0.01  -0.01   0.00    -0.01   0.00   0.00    -0.02  -0.00   0.00
    53   6    -0.01  -0.01   0.00    -0.01   0.00   0.00    -0.02  -0.01   0.01
    54   6    -0.01  -0.01   0.00    -0.01   0.00   0.00    -0.02  -0.01   0.01
    55   6    -0.00  -0.01   0.00    -0.01   0.00   0.00    -0.01  -0.01   0.00
    56   6    -0.02  -0.01  -0.00    -0.01   0.00   0.00     0.00  -0.00  -0.00
    57   6    -0.01  -0.01  -0.00    -0.01   0.00  -0.00     0.01  -0.00   0.00
    58   6    -0.02  -0.00   0.00    -0.00   0.01   0.00    -0.02   0.01   0.00
    59   6    -0.01  -0.01   0.00    -0.00   0.00  -0.00     0.03  -0.01   0.01
    60   6    -0.00  -0.01   0.00    -0.01   0.00  -0.00     0.02  -0.00   0.01
    61   6     0.19   0.05  -0.01    -0.02  -0.03  -0.02     0.12  -0.00   0.02
    62   6     0.07   0.04  -0.01     0.11  -0.03  -0.02     0.14  -0.00   0.02
    63   6     0.38   0.03   0.02    -0.01  -0.01  -0.00    -0.15   0.01  -0.03
    64   1     0.58   0.03   0.05    -0.06  -0.01   0.00    -0.20   0.00  -0.03
    65   1     0.36   0.19  -0.02     0.03  -0.04  -0.03    -0.27  -0.05   0.10
    66   1     0.36  -0.14   0.06     0.02   0.04   0.03    -0.21   0.07  -0.21
    67   6     0.07   0.02  -0.00     0.36  -0.01   0.03     0.08  -0.00   0.01
    68   1     0.04   0.02   0.02     0.59  -0.01   0.06     0.15  -0.00   0.03
    69   1     0.08  -0.01   0.01     0.33   0.19   0.10     0.03   0.05  -0.07
    70   1     0.08   0.03  -0.01     0.35  -0.20  -0.03     0.00  -0.06   0.06
    71   6    -0.02   0.07  -0.02     0.04  -0.05  -0.05     0.24  -0.00   0.05
    72   1    -0.02   0.08  -0.03    -0.11  -0.07  -0.08     0.29  -0.00   0.06
    73   1    -0.08   0.07  -0.02     0.13  -0.05  -0.04     0.25   0.00   0.06
    74   6     0.13   0.06  -0.04    -0.15  -0.06  -0.04     0.32  -0.01   0.08
    75   1     0.21   0.07  -0.04    -0.23  -0.06  -0.04     0.33  -0.01   0.09
    76   1     0.01   0.07  -0.07    -0.16  -0.07  -0.05     0.45  -0.01   0.10
                      7                      8                      9
                      A                      A                      A
 Frequencies --    196.4786               206.2092               257.0457
 Red. masses --      3.2915                 1.0523                11.9035
 Frc consts  --      0.0749                 0.0264                 0.4634
 IR Inten    --      0.0000                 0.0000                 0.0000
  Atom  AN      X      Y      Z        X      Y      Z        X      Y      Z
     1   6    -0.01   0.00  -0.00     0.00   0.00  -0.00    -0.03  -0.10  -0.02
     2   6    -0.01   0.00  -0.00     0.00   0.00   0.00    -0.05  -0.15  -0.06
     3   6    -0.01   0.00  -0.00     0.00   0.00   0.00    -0.07  -0.11  -0.02
     4   6    -0.01   0.00  -0.01     0.00   0.00   0.00    -0.07  -0.06   0.10
     5   6    -0.01   0.00  -0.01     0.00   0.00  -0.00    -0.09  -0.03   0.12
     6   6    -0.01   0.00  -0.00     0.00   0.00  -0.00    -0.05  -0.05   0.05
     7   6    -0.01   0.00  -0.00     0.00   0.00  -0.00    -0.01  -0.09  -0.03
     8   6    -0.01   0.00  -0.00     0.00   0.00  -0.00    -0.02  -0.13  -0.06
     9   6    -0.01  -0.00  -0.00     0.00   0.00   0.00    -0.06  -0.17  -0.07
    10   6    -0.01  -0.01  -0.00     0.00   0.00   0.00    -0.07  -0.14  -0.09
    11   6    -0.01  -0.00  -0.00     0.00   0.00   0.00    -0.08  -0.10  -0.05
    12   6    -0.00   0.00  -0.01     0.00   0.00   0.00    -0.05  -0.06   0.14
    13   6    -0.00   0.01  -0.00     0.00  -0.00   0.00    -0.06  -0.06   0.18
    14   6    -0.00   0.01  -0.00     0.00   0.00  -0.00    -0.08  -0.03   0.17
    15   6    -0.01   0.00  -0.00     0.00   0.00  -0.00    -0.11  -0.03   0.15
    16   6    -0.01   0.00  -0.00     0.01   0.00  -0.00    -0.08  -0.00   0.10
    17   6    -0.01   0.01  -0.00     0.01   0.00  -0.00    -0.04  -0.02   0.04
    18   6    -0.01   0.01  -0.00     0.00   0.00  -0.00     0.00  -0.01   0.02
    19   6    -0.01   0.01  -0.00     0.00   0.00  -0.00    -0.01  -0.03  -0.03
    20   6    -0.01   0.00   0.00     0.00   0.00  -0.00     0.01  -0.05  -0.08
    21   6    -0.01   0.00   0.00     0.00   0.00  -0.00     0.02   0.01  -0.11
    22   6    -0.01   0.00  -0.00     0.00   0.00  -0.00     0.01   0.01  -0.05
    23   6    -0.01   0.00  -0.00     0.00   0.00  -0.00     0.02   0.03  -0.03
    24   6    -0.01   0.00  -0.00     0.00   0.00  -0.00     0.02   0.03   0.00
    25   6    -0.01   0.00  -0.00     0.00   0.00  -0.00     0.04   0.06   0.06
    26   6    -0.01   0.00  -0.00     0.01   0.00  -0.00    -0.02   0.04   0.07
    27   6    -0.00   0.01  -0.00     0.00   0.00  -0.00     0.02   0.07   0.09
    28   6     0.00   0.01  -0.00     0.00   0.00  -0.00    -0.03   0.02   0.11
    29   6    -0.00   0.00  -0.00     0.00  -0.00   0.00    -0.05  -0.07   0.05
    30   6     0.01   0.01   0.00     0.00  -0.00  -0.00     0.01   0.09   0.03
    31   6     0.02  -0.00   0.00     0.00  -0.00   0.00     0.01   0.03   0.03
    32   6     0.03  -0.01   0.00    -0.00  -0.00   0.00    -0.00   0.01  -0.02
    33   6     0.01  -0.00   0.00    -0.00  -0.00   0.00     0.04   0.02  -0.04
    34   6     0.00   0.00   0.00    -0.00  -0.00   0.00     0.05   0.05  -0.05
    35   6    -0.00   0.01   0.00     0.00  -0.00  -0.00     0.05   0.15   0.06
    36   6     0.00   0.01   0.00     0.00  -0.00  -0.00     0.06   0.17   0.07
    37   6     0.00   0.01   0.00     0.00  -0.00  -0.00     0.02   0.13   0.06
    38   6     0.00   0.01  -0.00     0.00  -0.00   0.00    -0.01   0.05   0.08
    39   6     0.00   0.01  -0.00     0.00  -0.00   0.00    -0.02  -0.01   0.11
    40   6     0.01   0.00   0.00     0.00  -0.00   0.00    -0.01  -0.01   0.05
    41   6    -0.01  -0.01   0.00    -0.01  -0.00   0.00     0.02  -0.03  -0.07
    42   6     0.00  -0.00   0.00    -0.00   0.00   0.00     0.09   0.00  -0.10
    43   6    -0.00   0.00   0.00    -0.00  -0.00   0.00     0.11   0.03  -0.15
    44   6    -0.00   0.00   0.01    -0.00  -0.00  -0.00     0.09   0.03  -0.12
    45   6    -0.00   0.00   0.00    -0.00  -0.00  -0.00     0.07   0.06  -0.10
    46   6    -0.00   0.00   0.00     0.00  -0.00  -0.00     0.07   0.11   0.02
    47   6    -0.00   0.01   0.00     0.00  -0.00  -0.00     0.07   0.14   0.09
    48   6    -0.01   0.00  -0.00     0.00  -0.00  -0.00     0.10   0.12   0.08
    49   6    -0.00   0.00  -0.00     0.00  -0.00  -0.00     0.08   0.10   0.05
    50   6    -0.01   0.00  -0.00     0.00   0.00  -0.00     0.05   0.07  -0.05
    51   6    -0.01   0.00   0.00     0.00   0.00  -0.00     0.05   0.06  -0.15
    52   6    -0.01   0.00   0.00    -0.00   0.00  -0.00     0.06   0.06  -0.18
    53   6    -0.01   0.00   0.00    -0.00  -0.00   0.00     0.08   0.03  -0.17
    54   6    -0.01  -0.00   0.00    -0.00  -0.00   0.00     0.03  -0.02  -0.11
    55   6    -0.01  -0.01   0.00    -0.00  -0.00   0.00    -0.02  -0.07  -0.08
    56   6     0.01  -0.00   0.01     0.00  -0.00   0.00    -0.02  -0.03   0.03
    57   6    -0.01  -0.01  -0.00     0.00   0.00   0.00    -0.09  -0.12  -0.08
    58   6     0.00   0.00   0.00     0.00  -0.00  -0.00     0.03   0.10   0.02
    59   6     0.02  -0.01   0.01    -0.00  -0.00   0.00    -0.02  -0.03  -0.01
    60   6     0.00  -0.01   0.00    -0.00  -0.00   0.00    -0.03  -0.05  -0.06
    61   6    -0.01  -0.02   0.01    -0.02   0.00  -0.01     0.00   0.00  -0.00
    62   6     0.09  -0.02   0.00    -0.02  -0.00  -0.01    -0.00   0.00  -0.00
    63   6     0.10  -0.01   0.04    -0.00   0.03   0.01    -0.01   0.00  -0.00
    64   1     0.02  -0.01   0.03     0.42   0.02   0.12     0.02   0.00   0.01
    65   1     0.21  -0.06  -0.06    -0.25   0.37   0.13    -0.04   0.03   0.01
    66   1     0.17   0.04   0.17    -0.18  -0.28  -0.21    -0.03  -0.02  -0.03
    67   6    -0.12  -0.01  -0.05    -0.02  -0.02   0.00    -0.01  -0.00   0.00
    68   1    -0.18  -0.01  -0.07     0.34  -0.02   0.11     0.00  -0.00   0.01
    69   1    -0.16  -0.07  -0.18    -0.18   0.24  -0.20    -0.02   0.01  -0.02
    70   1    -0.20   0.07   0.05    -0.24  -0.33   0.11    -0.03  -0.02   0.01
    71   6     0.34  -0.03   0.06     0.01   0.01   0.01    -0.00   0.00   0.00
    72   1     0.45  -0.03   0.08     0.02   0.01   0.01     0.01   0.00   0.00
    73   1     0.39  -0.03   0.07     0.05   0.01   0.03    -0.00   0.00   0.00
    74   6    -0.20  -0.04  -0.03    -0.02  -0.01   0.00     0.02   0.00   0.00
    75   1    -0.30  -0.04  -0.05     0.01  -0.01   0.02     0.03   0.00   0.01
    76   1    -0.25  -0.04  -0.05    -0.03  -0.02  -0.00     0.02   0.00   0.01
                     10                     11                     12
                      A                      A                      A
 Frequencies --    257.2351               257.7465               258.4414
 Red. masses --     11.8209                11.7978                11.3044
 Frc consts  --      0.4609                 0.4618                 0.4449
 IR Inten    --      0.0000                 0.0000                 0.0000
  Atom  AN      X      Y      Z        X      Y      Z        X      Y      Z
     1   6    -0.03   0.03   0.12    -0.07   0.08  -0.02    -0.10   0.13   0.06
     2   6    -0.02   0.08   0.12    -0.05   0.04  -0.07    -0.08   0.03   0.05
     3   6    -0.03   0.09   0.12    -0.07  -0.02  -0.14    -0.03   0.03   0.04
     4   6    -0.06   0.09   0.11    -0.06  -0.01  -0.13    -0.02   0.04   0.04
     5   6    -0.10   0.07   0.14    -0.07   0.01  -0.04    -0.02   0.09   0.04
     6   6    -0.08   0.06   0.12    -0.08   0.06  -0.00    -0.10   0.13   0.07
     7   6     0.02  -0.07   0.10    -0.05   0.15  -0.00    -0.12   0.10   0.03
     8   6     0.02  -0.10   0.08    -0.02   0.13  -0.03    -0.10  -0.02   0.03
     9   6     0.01   0.00   0.08    -0.02   0.06  -0.05    -0.10  -0.05   0.02
    10   6     0.02   0.02   0.02    -0.02   0.03  -0.08    -0.13  -0.11   0.01
    11   6    -0.03   0.07   0.02    -0.10  -0.03  -0.18    -0.04  -0.02   0.02
    12   6    -0.06   0.09  -0.00    -0.07  -0.02  -0.17     0.01   0.03   0.02
    13   6    -0.06   0.10  -0.05    -0.05  -0.03  -0.09     0.06   0.04  -0.02
    14   6    -0.07   0.06   0.01    -0.06  -0.04  -0.02     0.10   0.10  -0.06
    15   6    -0.10   0.05   0.10    -0.07  -0.01  -0.00     0.05   0.09  -0.03
    16   6    -0.08   0.01   0.07    -0.09   0.02   0.04     0.04   0.10  -0.01
    17   6    -0.06   0.01   0.10    -0.10   0.05   0.04    -0.07   0.12   0.02
    18   6     0.01  -0.06   0.09    -0.05   0.08   0.05    -0.10   0.11  -0.00
    19   6     0.06  -0.11   0.11    -0.05   0.11   0.03    -0.11   0.12  -0.01
    20   6     0.03  -0.13   0.09     0.04   0.12  -0.01    -0.10  -0.07   0.04
    21   6     0.06  -0.16   0.12     0.03   0.06   0.05    -0.08  -0.02   0.01
    22   6     0.08  -0.15   0.14     0.03   0.06   0.08    -0.09   0.06  -0.01
    23   6     0.08  -0.11   0.11     0.07   0.02   0.15    -0.04   0.04  -0.02
    24   6     0.03  -0.06   0.08     0.04   0.03   0.11    -0.04   0.09  -0.01
    25   6    -0.01  -0.04   0.03     0.04   0.02   0.10     0.05   0.08  -0.02
    26   6    -0.04   0.00   0.03    -0.05  -0.02   0.07     0.11   0.11  -0.02
    27   6    -0.05   0.01  -0.01    -0.06  -0.06   0.06     0.15   0.14  -0.04
    28   6    -0.05   0.07  -0.02    -0.06  -0.10   0.04     0.14   0.13  -0.06
    29   6    -0.06   0.08  -0.05    -0.10  -0.02  -0.21     0.01  -0.02   0.01
    30   6    -0.02   0.07  -0.10     0.05  -0.14   0.00     0.11  -0.10  -0.03
    31   6    -0.05   0.11  -0.11     0.05  -0.11  -0.04     0.10  -0.12   0.01
    32   6    -0.01   0.05  -0.09     0.05  -0.08  -0.05     0.09  -0.11   0.00
    33   6     0.06  -0.01  -0.10     0.10  -0.05  -0.04     0.07  -0.12  -0.02
    34   6     0.08  -0.05  -0.12     0.08  -0.06  -0.00     0.10  -0.13  -0.06
    35   6     0.02  -0.08  -0.12     0.05  -0.04   0.07     0.09  -0.04  -0.05
    36   6    -0.01   0.00  -0.08     0.02  -0.07   0.05     0.10   0.05  -0.02
    37   6    -0.02   0.10  -0.08     0.02  -0.14   0.03     0.10   0.01  -0.03
    38   6    -0.03   0.14  -0.09    -0.03  -0.12   0.01     0.10   0.07  -0.04
    39   6    -0.06   0.16  -0.12    -0.03  -0.06  -0.05     0.07   0.01  -0.01
    40   6    -0.08   0.15  -0.14    -0.03  -0.06  -0.08     0.08  -0.07   0.01
    41   6     0.04  -0.00  -0.03     0.04   0.02  -0.07    -0.09  -0.11   0.02
    42   6     0.07  -0.01  -0.07     0.09  -0.01  -0.04    -0.04  -0.10   0.02
    43   6     0.10  -0.04  -0.10     0.07   0.01  -0.00    -0.05  -0.09   0.03
    44   6     0.09  -0.06  -0.14     0.07  -0.01   0.04     0.03  -0.09  -0.03
    45   6     0.07  -0.09  -0.11     0.06   0.01   0.13     0.02  -0.04  -0.04
    46   6     0.03  -0.09  -0.12     0.07   0.02   0.14     0.04  -0.03  -0.04
    47   6    -0.02  -0.02  -0.02     0.02  -0.03   0.08     0.13   0.11  -0.01
    48   6    -0.00  -0.03  -0.01     0.07   0.02   0.14     0.07   0.08  -0.01
    49   6     0.03  -0.08  -0.02     0.10   0.04   0.19     0.04   0.02  -0.03
    50   6     0.06  -0.08   0.05     0.10   0.02   0.21    -0.01   0.02  -0.01
    51   6     0.06  -0.09   0.00     0.07   0.02   0.17    -0.01  -0.03  -0.02
    52   6     0.06  -0.10   0.05     0.04   0.04   0.09    -0.06  -0.04   0.02
    53   6     0.07  -0.06  -0.02     0.06   0.04   0.02    -0.10  -0.10   0.06
    54   6     0.05  -0.06   0.02     0.06   0.10  -0.03    -0.14  -0.13   0.06
    55   6     0.04  -0.00   0.01     0.05   0.06  -0.06    -0.14  -0.14   0.04
    56   6    -0.08   0.11  -0.11    -0.07  -0.02  -0.15     0.03  -0.05   0.02
    57   6     0.00   0.03   0.01    -0.07  -0.02  -0.13    -0.07  -0.07   0.01
    58   6     0.03  -0.03  -0.12     0.07  -0.08   0.02     0.11  -0.13  -0.06
    59   6    -0.03   0.05  -0.07    -0.04  -0.03  -0.11     0.03  -0.08   0.01
    60   6     0.01   0.04  -0.03    -0.04  -0.02  -0.10    -0.05  -0.08   0.02
    61   6    -0.00  -0.00   0.00    -0.00   0.00   0.00     0.01   0.00   0.00
    62   6     0.01  -0.00   0.00    -0.00   0.00  -0.00    -0.02   0.01   0.00
    63   6    -0.00   0.00   0.00    -0.01   0.01  -0.00     0.00  -0.01  -0.00
    64   1     0.06   0.00   0.01     0.03   0.00   0.01     0.06  -0.01  -0.00
    65   1    -0.04   0.05   0.03    -0.05   0.04   0.02    -0.04   0.03   0.02
    66   1    -0.03  -0.04  -0.04    -0.04  -0.03  -0.04    -0.02  -0.05  -0.04
    67   6    -0.01  -0.00  -0.00    -0.02  -0.01  -0.00     0.00   0.01   0.01
    68   1    -0.02  -0.00  -0.00     0.02  -0.00   0.01    -0.10   0.01  -0.02
    69   1    -0.02  -0.01  -0.02    -0.04   0.02  -0.04     0.05  -0.06   0.08
    70   1    -0.02   0.00   0.01    -0.05  -0.04   0.02     0.08   0.09  -0.04
    71   6     0.02  -0.00   0.00     0.00   0.00   0.00    -0.06   0.01  -0.01
    72   1     0.04  -0.00   0.01     0.00   0.00   0.00    -0.07   0.00  -0.01
    73   1     0.02  -0.00   0.00     0.00   0.00   0.00    -0.07   0.01  -0.02
    74   6    -0.01  -0.00  -0.00     0.01  -0.00   0.01     0.04   0.01   0.00
    75   1    -0.01  -0.00   0.00     0.02  -0.00   0.01     0.06   0.01   0.01
    76   1    -0.01  -0.00  -0.00     0.01  -0.00   0.00     0.04   0.01   0.01
                     13                     14                     15
                      A                      A                      A
 Frequencies --    267.2848               295.6436               344.3872
 Red. masses --     10.7996                 1.0792                 2.4502
 Frc consts  --      0.4546                 0.0556                 0.1712
 IR Inten    --      0.0000                 0.0000                 0.0000
  Atom  AN      X      Y      Z        X      Y      Z        X      Y      Z
     1   6     0.01   0.09   0.04    -0.00   0.00   0.00     0.00  -0.00   0.00
     2   6    -0.01   0.09   0.06    -0.00  -0.00   0.00     0.00   0.00   0.00
     3   6    -0.04   0.06   0.07    -0.00  -0.00   0.00     0.00   0.00   0.00
     4   6    -0.02   0.04   0.12    -0.00   0.00   0.00     0.00   0.00   0.00
     5   6     0.00   0.03   0.09    -0.00   0.00   0.00     0.00   0.00  -0.00
     6   6     0.06   0.04   0.06    -0.00   0.00   0.00     0.00  -0.00  -0.00
     7   6     0.02   0.09   0.02    -0.00  -0.00   0.00    -0.00  -0.00   0.00
     8   6     0.00   0.11  -0.01    -0.00  -0.00   0.00    -0.00  -0.00   0.00
     9   6    -0.02   0.11   0.03    -0.00  -0.00   0.00     0.00   0.00   0.00
    10   6    -0.07   0.05  -0.00     0.00  -0.00  -0.00     0.00   0.00  -0.00
    11   6    -0.08   0.02   0.02     0.00  -0.00  -0.00     0.00   0.00   0.00
    12   6    -0.05  -0.00   0.08     0.00   0.00   0.00     0.00   0.00   0.00
    13   6    -0.02  -0.04   0.09     0.00   0.00  -0.00    -0.00   0.00   0.00
    14   6     0.00  -0.04   0.07     0.00   0.00  -0.00     0.00   0.00  -0.00
    15   6     0.06  -0.00   0.06    -0.00   0.00  -0.00     0.00   0.00  -0.00
    16   6     0.16  -0.00   0.01    -0.00   0.00  -0.00     0.00   0.00  -0.00
    17   6     0.16  -0.01   0.02    -0.01   0.00   0.00    -0.00  -0.00  -0.00
    18   6     0.18  -0.02   0.03    -0.01   0.00   0.00    -0.00  -0.00  -0.00
    19   6     0.08   0.04  -0.00    -0.00  -0.00   0.00    -0.00  -0.00   0.00
    20   6    -0.01   0.10  -0.04    -0.00  -0.00   0.00    -0.00   0.00   0.00
    21   6     0.02   0.09  -0.08    -0.00  -0.00   0.00    -0.00  -0.00   0.00
    22   6     0.05   0.05  -0.03    -0.00  -0.00   0.00    -0.00  -0.00   0.00
    23   6     0.12   0.00   0.00    -0.00  -0.00   0.00    -0.00  -0.00  -0.00
    24   6     0.21  -0.02   0.04    -0.00   0.00  -0.00    -0.00  -0.00  -0.00
    25   6     0.21  -0.01   0.04    -0.00   0.00  -0.00    -0.00  -0.00  -0.00
    26   6     0.19  -0.00   0.02     0.00   0.00  -0.00    -0.00   0.00  -0.00
    27   6     0.08  -0.04   0.02     0.00   0.00  -0.00     0.00   0.00  -0.00
    28   6     0.01  -0.07   0.05     0.00   0.00  -0.00     0.00   0.00  -0.00
    29   6    -0.08   0.01   0.02     0.00   0.00  -0.00     0.00   0.00   0.00
    30   6    -0.04  -0.08  -0.02     0.00  -0.00  -0.00    -0.00  -0.00   0.00
    31   6    -0.09  -0.03  -0.00     0.00  -0.00   0.00    -0.00  -0.00   0.00
    32   6    -0.16   0.01  -0.02     0.00  -0.00   0.00    -0.01   0.00  -0.00
    33   6    -0.16   0.02  -0.01     0.00  -0.00   0.00    -0.00   0.00  -0.00
    34   6    -0.08  -0.02  -0.05    -0.00   0.00   0.00     0.00  -0.00  -0.00
    35   6    -0.01  -0.10  -0.07     0.00  -0.00  -0.00     0.00   0.00   0.00
    36   6     0.00  -0.12  -0.03     0.00   0.00  -0.00     0.00   0.00   0.00
    37   6    -0.02  -0.11   0.01     0.00   0.00  -0.00    -0.00  -0.00   0.00
    38   6    -0.01  -0.10   0.04     0.00   0.00  -0.00    -0.00   0.00   0.00
    39   6    -0.04  -0.07   0.07     0.00   0.00  -0.00    -0.00  -0.00   0.00
    40   6    -0.07  -0.03   0.02     0.00  -0.00   0.00    -0.00  -0.00   0.00
    41   6    -0.16   0.01  -0.02     0.00  -0.00  -0.00    -0.00  -0.00  -0.00
    42   6    -0.16   0.01  -0.01     0.00  -0.00  -0.00     0.00  -0.00  -0.00
    43   6    -0.08   0.01  -0.05     0.00  -0.00   0.00     0.00   0.00  -0.00
    44   6    -0.03  -0.02  -0.08    -0.00  -0.00   0.00     0.00   0.00  -0.00
    45   6     0.00  -0.04  -0.12     0.00  -0.00  -0.00     0.00   0.00   0.00
    46   6     0.02  -0.07  -0.08     0.00  -0.00  -0.00     0.00   0.00   0.00
    47   6     0.05  -0.07  -0.00     0.00   0.00  -0.00     0.00   0.00  -0.00
    48   6     0.12  -0.03   0.01     0.00   0.00  -0.00    -0.00  -0.00  -0.00
    49   6     0.06  -0.03  -0.04     0.00  -0.00  -0.00     0.00  -0.00  -0.00
    50   6     0.06  -0.01  -0.04    -0.00   0.00   0.00     0.00  -0.00   0.00
    51   6     0.03   0.00  -0.09    -0.00  -0.00   0.00     0.00   0.00   0.00
    52   6    -0.00   0.05  -0.09    -0.00  -0.00   0.00    -0.00   0.00   0.00
    53   6    -0.03   0.04  -0.06     0.00  -0.00  -0.00    -0.00   0.00   0.00
    54   6    -0.04   0.06  -0.04     0.00  -0.00  -0.00    -0.00   0.00  -0.00
    55   6    -0.10   0.03  -0.02     0.00  -0.00  -0.00    -0.00   0.00  -0.00
    56   6    -0.12  -0.00  -0.01     0.00   0.00   0.00    -0.00  -0.00   0.00
    57   6    -0.12   0.02  -0.01     0.00  -0.00  -0.00     0.00  -0.00  -0.00
    58   6    -0.03  -0.07  -0.04     0.00  -0.00  -0.00     0.00   0.00   0.00
    59   6    -0.17   0.01  -0.03    -0.00  -0.00  -0.00    -0.01  -0.00  -0.00
    60   6    -0.18   0.00  -0.03     0.00  -0.00  -0.00    -0.00  -0.00  -0.00
    61   6     0.06  -0.00   0.00    -0.01  -0.00  -0.01     0.01   0.01  -0.07
    62   6     0.06  -0.00   0.00    -0.01  -0.00  -0.01     0.01  -0.01  -0.07
    63   6     0.01   0.00  -0.00     0.02   0.03   0.01    -0.01   0.22   0.03
    64   1    -0.13  -0.00  -0.02    -0.35   0.03  -0.03    -0.06   0.20   0.24
    65   1     0.08  -0.11  -0.03     0.27  -0.22  -0.14     0.01   0.31  -0.02
    66   1     0.07   0.12   0.05     0.20   0.32   0.23    -0.01   0.31  -0.00
    67   6     0.03   0.00  -0.01    -0.03  -0.03  -0.00     0.00  -0.22   0.04
    68   1     0.03   0.00  -0.01     0.37  -0.02   0.11    -0.25  -0.19   0.22
    69   1     0.02   0.01  -0.03    -0.21   0.26  -0.23     0.11  -0.47   0.13
    70   1     0.00   0.00   0.02    -0.27  -0.35   0.12     0.15  -0.16  -0.08
    71   6     0.12   0.00   0.02    -0.03   0.01  -0.00     0.01   0.10   0.01
    72   1     0.14   0.01   0.02    -0.03   0.02  -0.01     0.01   0.18  -0.03
    73   1     0.12   0.00   0.03    -0.01   0.01   0.02    -0.03   0.09   0.13
    74   6     0.07  -0.01   0.01     0.03  -0.00   0.00    -0.01  -0.10   0.00
    75   1     0.06  -0.01   0.01     0.03  -0.00   0.00    -0.03  -0.10   0.13
    76   1     0.08  -0.02   0.01     0.04  -0.00   0.00     0.01  -0.19  -0.04
                     16                     17                     18
                      A                      A                      A
 Frequencies --    356.9006               357.2090               357.5678
 Red. masses --     11.9683                11.9538                11.9267
 Frc consts  --      0.8982                 0.8987                 0.8984
 IR Inten    --      0.0000                 0.0000                 0.0000
  Atom  AN      X      Y      Z        X      Y      Z        X      Y      Z
     1   6     0.09  -0.14  -0.12    -0.01  -0.02  -0.10    -0.04   0.05   0.00
     2   6     0.05  -0.07  -0.11    -0.01  -0.12  -0.14    -0.04  -0.10  -0.03
     3   6    -0.01  -0.05  -0.07     0.02  -0.12  -0.15    -0.08  -0.14  -0.05
     4   6    -0.01  -0.01   0.05     0.06  -0.10  -0.17    -0.07  -0.06   0.12
     5   6    -0.02  -0.05   0.07     0.06  -0.05  -0.15    -0.04   0.04   0.05
     6   6     0.12  -0.14  -0.07    -0.01  -0.01  -0.07    -0.04   0.07   0.03
     7   6     0.04   0.01  -0.06    -0.04   0.13  -0.06    -0.02   0.09  -0.01
     8   6     0.03   0.20  -0.04    -0.00   0.10  -0.07     0.00   0.06   0.01
     9   6     0.06   0.10  -0.04    -0.02  -0.01  -0.07    -0.04  -0.08  -0.00
    10   6     0.05   0.06   0.00    -0.00   0.01   0.03    -0.05  -0.06  -0.05
    11   6    -0.03  -0.04  -0.05     0.07  -0.03   0.08    -0.12  -0.14  -0.11
    12   6    -0.02  -0.00   0.11     0.05  -0.06   0.04    -0.03  -0.08   0.21
    13   6    -0.06   0.01   0.14     0.02  -0.04   0.03     0.00  -0.08   0.17
    14   6    -0.12  -0.04   0.19     0.01  -0.00   0.00     0.05   0.05   0.01
    15   6    -0.14  -0.05   0.18    -0.01  -0.01  -0.04     0.05   0.04  -0.05
    16   6    -0.05  -0.07   0.07    -0.13   0.01   0.04     0.12   0.06  -0.09
    17   6     0.11  -0.12  -0.02    -0.15   0.06   0.02     0.02   0.07  -0.03
    18   6     0.10  -0.08  -0.00    -0.13   0.12   0.03    -0.02   0.06  -0.03
    19   6     0.02  -0.01  -0.03    -0.09   0.13  -0.01    -0.00   0.06  -0.02
    20   6     0.00   0.22  -0.06     0.03   0.04  -0.04     0.06   0.08   0.02
    21   6    -0.04   0.14  -0.03     0.02  -0.02   0.01     0.06  -0.04   0.11
    22   6    -0.05   0.07  -0.07     0.02  -0.01   0.07     0.05  -0.03   0.04
    23   6    -0.03   0.02  -0.06     0.11  -0.05   0.19     0.03  -0.02   0.03
    24   6     0.03  -0.02  -0.02     0.03   0.03   0.11    -0.02   0.02  -0.03
    25   6    -0.02  -0.01  -0.01     0.02   0.02   0.09    -0.03  -0.01  -0.09
    26   6    -0.04  -0.02   0.01    -0.08  -0.02   0.06     0.13   0.07  -0.08
    27   6     0.01   0.03   0.01    -0.03  -0.01   0.04     0.12   0.10  -0.05
    28   6    -0.03   0.07   0.04     0.02   0.01   0.01     0.11   0.14  -0.05
    29   6    -0.02  -0.02  -0.01     0.11  -0.04   0.19    -0.03  -0.09   0.06
    30   6     0.04   0.01  -0.06    -0.04   0.13  -0.06    -0.03   0.09  -0.00
    31   6     0.02  -0.01  -0.03    -0.09   0.13  -0.01    -0.00   0.06  -0.02
    32   6     0.10  -0.08  -0.00    -0.13   0.12   0.03    -0.02   0.06  -0.03
    33   6     0.12  -0.12  -0.02    -0.17   0.06   0.03     0.03   0.07  -0.03
    34   6     0.12  -0.14  -0.07    -0.01  -0.01  -0.08    -0.04   0.08   0.04
    35   6     0.05  -0.07  -0.11    -0.01  -0.12  -0.15    -0.04  -0.10  -0.03
    36   6     0.06   0.10  -0.04    -0.02  -0.01  -0.07    -0.04  -0.08  -0.00
    37   6     0.03   0.20  -0.04    -0.00   0.10  -0.07     0.00   0.05   0.01
    38   6     0.00   0.22  -0.06     0.03   0.04  -0.04     0.06   0.08   0.02
    39   6    -0.04   0.13  -0.03     0.02  -0.02   0.01     0.05  -0.04   0.11
    40   6    -0.05   0.07  -0.07     0.02  -0.01   0.06     0.05  -0.03   0.04
    41   6    -0.03  -0.02   0.01    -0.07  -0.01   0.06     0.12   0.07  -0.08
    42   6    -0.06  -0.07   0.07    -0.15   0.01   0.04     0.14   0.06  -0.09
    43   6    -0.15  -0.05   0.18    -0.01  -0.01  -0.04     0.05   0.05  -0.05
    44   6    -0.02  -0.05   0.07     0.06  -0.05  -0.16    -0.04   0.04   0.05
    45   6    -0.01  -0.01   0.05     0.05  -0.10  -0.18    -0.06  -0.06   0.12
    46   6    -0.01  -0.05  -0.07     0.02  -0.12  -0.16    -0.08  -0.14  -0.05
    47   6     0.05   0.06   0.00    -0.00   0.01   0.03    -0.05  -0.07  -0.05
    48   6    -0.01   0.00  -0.01     0.05   0.04   0.09    -0.14  -0.12  -0.12
    49   6    -0.03  -0.04  -0.05     0.07  -0.03   0.08    -0.12  -0.14  -0.11
    50   6    -0.02  -0.02  -0.01     0.12  -0.04   0.19    -0.03  -0.09   0.06
    51   6    -0.02  -0.00   0.11     0.05  -0.06   0.03    -0.03  -0.08   0.22
    52   6    -0.07   0.01   0.14     0.02  -0.04   0.03     0.01  -0.08   0.17
    53   6    -0.13  -0.04   0.19     0.02   0.00  -0.00     0.05   0.05   0.01
    54   6    -0.03   0.07   0.04     0.02   0.01   0.01     0.11   0.13  -0.05
    55   6     0.01   0.03   0.01    -0.03  -0.01   0.04     0.11   0.10  -0.05
    56   6    -0.03   0.02  -0.06     0.11  -0.05   0.18     0.03  -0.02   0.03
    57   6    -0.00   0.00  -0.01     0.05   0.04   0.09    -0.14  -0.12  -0.12
    58   6     0.09  -0.14  -0.12    -0.01  -0.02  -0.10    -0.04   0.06   0.01
    59   6     0.02  -0.02  -0.03     0.03   0.03   0.11    -0.02   0.02  -0.03
    60   6    -0.01  -0.01  -0.00     0.03   0.03   0.09    -0.03  -0.01  -0.09
    61   6     0.01   0.00   0.00     0.00  -0.00  -0.00    -0.00   0.00   0.00
    62   6     0.00   0.00   0.00    -0.00  -0.00  -0.00     0.00  -0.00   0.00
    63   6     0.00   0.00   0.00     0.01   0.00   0.00    -0.01  -0.00  -0.00
    64   1    -0.01   0.00   0.00    -0.01   0.00   0.01     0.02  -0.00  -0.00
    65   1     0.01  -0.01  -0.00     0.02  -0.00  -0.01    -0.04   0.02   0.02
    66   1     0.01   0.02   0.01     0.02   0.02   0.02    -0.03  -0.03  -0.03
    67   6    -0.01  -0.00   0.00     0.01  -0.00   0.00    -0.00   0.00  -0.00
    68   1     0.00  -0.00   0.01     0.02  -0.00   0.01    -0.02   0.00  -0.01
    69   1    -0.02   0.00  -0.02     0.01   0.00   0.02     0.00  -0.01  -0.00
    70   1    -0.02  -0.02   0.01     0.02  -0.01  -0.01     0.00   0.01   0.00
    71   6    -0.02   0.00  -0.00     0.01   0.00   0.00     0.00  -0.00  -0.00
    72   1    -0.02   0.00  -0.00     0.02   0.01   0.00     0.00  -0.01  -0.00
    73   1    -0.01   0.00  -0.00     0.01   0.00   0.01    -0.00  -0.00  -0.01
    74   6     0.00  -0.00  -0.00     0.00  -0.00  -0.00    -0.00   0.00   0.00
    75   1    -0.00  -0.00   0.00    -0.00  -0.00  -0.00     0.01   0.00  -0.00
    76   1     0.00  -0.00  -0.00     0.01  -0.00   0.00    -0.01   0.01   0.00
                     19                     20                     21
                      A                      A                      A
 Frequencies --    359.9979               360.1003               361.0835
 Red. masses --     11.9657                11.9069                11.9268
 Frc consts  --      0.9137                 0.9097                 0.9162
 IR Inten    --      0.0000                 0.0000                 0.0000
  Atom  AN      X      Y      Z        X      Y      Z        X      Y      Z
     1   6    -0.01  -0.00  -0.12     0.01  -0.07   0.02     0.09   0.00   0.05
     2   6    -0.05   0.04   0.02     0.02   0.04  -0.02     0.14   0.00   0.03
     3   6    -0.08   0.01   0.02    -0.08   0.05  -0.03     0.17  -0.01  -0.02
     4   6    -0.09   0.03  -0.04    -0.11   0.04  -0.04     0.07   0.07  -0.07
     5   6    -0.07   0.08  -0.09    -0.11  -0.09  -0.05     0.05   0.09  -0.09
     6   6    -0.07   0.05  -0.14    -0.06  -0.08  -0.02     0.01   0.05  -0.05
     7   6     0.09  -0.09  -0.11     0.09  -0.02   0.07    -0.00  -0.04   0.07
     8   6     0.10  -0.01   0.03     0.12  -0.00   0.03    -0.00   0.03   0.10
     9   6     0.04   0.06   0.11     0.11   0.03  -0.01     0.11   0.00   0.04
    10   6     0.06   0.06   0.18     0.11   0.03  -0.09     0.10  -0.05   0.00
    11   6    -0.08  -0.04   0.05    -0.07   0.10  -0.07     0.14  -0.09  -0.02
    12   6    -0.04   0.02  -0.02    -0.09   0.09   0.00    -0.01   0.06   0.01
    13   6     0.06  -0.00   0.04    -0.03   0.03   0.04    -0.12   0.10   0.07
    14   6     0.07   0.07   0.04     0.01  -0.07  -0.06    -0.10   0.13   0.01
    15   6    -0.02   0.06  -0.01    -0.07  -0.12  -0.06    -0.04   0.12  -0.07
    16   6    -0.09   0.05   0.02    -0.09  -0.13  -0.04    -0.05   0.03  -0.09
    17   6    -0.09   0.04  -0.10    -0.11  -0.08   0.03    -0.07   0.02  -0.04
    18   6    -0.01  -0.03  -0.12    -0.06   0.02   0.08    -0.11  -0.07  -0.04
    19   6     0.10  -0.12  -0.10     0.03   0.00   0.15    -0.07  -0.07   0.09
    20   6     0.11  -0.00   0.05     0.14  -0.01   0.03    -0.09   0.07   0.08
    21   6     0.10  -0.05   0.05     0.06   0.02   0.13    -0.12   0.05   0.12
    22   6     0.09  -0.12  -0.05     0.05   0.05   0.17    -0.10  -0.06   0.10
    23   6    -0.04  -0.06  -0.08    -0.02   0.12   0.10    -0.03  -0.09   0.02
    24   6    -0.08  -0.06  -0.08    -0.06   0.05   0.04    -0.07  -0.11  -0.06
    25   6    -0.08  -0.04   0.06    -0.04   0.00  -0.05     0.02  -0.13  -0.11
    26   6    -0.06  -0.00   0.09     0.01  -0.10  -0.07    -0.01  -0.03  -0.09
    27   6     0.07   0.06   0.16     0.14  -0.04  -0.10     0.02   0.01  -0.03
    28   6     0.12   0.05   0.10     0.14  -0.04  -0.09    -0.07   0.09   0.03
    29   6    -0.06  -0.05  -0.06    -0.08   0.14   0.01     0.03  -0.06   0.02
    30   6     0.09  -0.09  -0.11     0.09  -0.03   0.07    -0.01  -0.05   0.07
    31   6     0.09  -0.12  -0.10     0.02   0.00   0.14    -0.07  -0.07   0.09
    32   6    -0.02  -0.03  -0.12    -0.07   0.02   0.07    -0.12  -0.06  -0.04
    33   6    -0.11   0.04  -0.10    -0.12  -0.08   0.03    -0.08   0.02  -0.04
    34   6    -0.07   0.05  -0.14    -0.06  -0.08  -0.03     0.01   0.05  -0.05
    35   6    -0.05   0.03   0.01     0.02   0.03  -0.02     0.13   0.00   0.03
    36   6     0.05   0.06   0.11     0.11   0.03  -0.01     0.11  -0.00   0.04
    37   6     0.11  -0.01   0.03     0.11  -0.00   0.03    -0.01   0.02   0.10
    38   6     0.12  -0.00   0.05     0.14  -0.01   0.03    -0.09   0.07   0.09
    39   6     0.10  -0.05   0.05     0.06   0.02   0.13    -0.13   0.05   0.12
    40   6     0.09  -0.12  -0.05     0.05   0.05   0.17    -0.10  -0.06   0.10
    41   6    -0.06   0.00   0.09     0.01  -0.10  -0.07    -0.01  -0.02  -0.09
    42   6    -0.12   0.05   0.03    -0.10  -0.13  -0.04    -0.04   0.03  -0.09
    43   6    -0.03   0.06  -0.01    -0.08  -0.12  -0.06    -0.04   0.12  -0.07
    44   6    -0.07   0.08  -0.10    -0.11  -0.09  -0.06     0.04   0.09  -0.09
    45   6    -0.09   0.03  -0.05    -0.11   0.04  -0.05     0.07   0.07  -0.07
    46   6    -0.08   0.01   0.01    -0.07   0.05  -0.03     0.17  -0.01  -0.02
    47   6     0.07   0.07   0.18     0.12   0.03  -0.09     0.10  -0.05   0.00
    48   6    -0.01  -0.02   0.13    -0.00   0.04  -0.07     0.12  -0.12  -0.06
    49   6    -0.07  -0.03   0.05    -0.06   0.10  -0.06     0.14  -0.09  -0.02
    50   6    -0.06  -0.05  -0.05    -0.07   0.14   0.01     0.03  -0.06   0.02
    51   6    -0.04   0.03  -0.03    -0.08   0.09  -0.00    -0.01   0.06   0.01
    52   6     0.06   0.00   0.03    -0.02   0.04   0.03    -0.12   0.11   0.06
    53   6     0.07   0.08   0.03     0.01  -0.07  -0.07    -0.10   0.13   0.01
    54   6     0.12   0.06   0.09     0.14  -0.04  -0.09    -0.07   0.09   0.03
    55   6     0.06   0.06   0.15     0.14  -0.04  -0.10     0.02   0.01  -0.03
    56   6    -0.04  -0.07  -0.08    -0.02   0.12   0.10    -0.03  -0.09   0.02
    57   6    -0.01  -0.02   0.13    -0.01   0.04  -0.07     0.11  -0.12  -0.06
    58   6    -0.01  -0.02  -0.13     0.02  -0.07   0.01     0.08  -0.00   0.05
    59   6    -0.07  -0.06  -0.07    -0.06   0.05   0.04    -0.07  -0.11  -0.06
    60   6    -0.08  -0.04   0.06    -0.03   0.00  -0.04     0.01  -0.13  -0.11
    61   6     0.01  -0.00  -0.00     0.01  -0.00   0.00     0.00   0.00   0.01
    62   6    -0.00   0.00  -0.00     0.00  -0.00   0.00     0.00   0.00   0.01
    63   6     0.01   0.00  -0.00     0.00  -0.01  -0.00     0.00  -0.02  -0.01
    64   1     0.00   0.00   0.00     0.03  -0.01   0.00     0.02  -0.02  -0.03
    65   1     0.01  -0.00  -0.00    -0.02   0.02   0.01    -0.01  -0.02   0.00
    66   1     0.01   0.01   0.00    -0.01  -0.03  -0.02    -0.01  -0.04  -0.01
    67   6     0.01   0.00   0.00     0.01   0.01   0.00     0.00   0.02   0.00
    68   1     0.00   0.00   0.00    -0.02   0.01  -0.01     0.01   0.02  -0.02
    69   1     0.02  -0.00   0.02     0.02  -0.01   0.02     0.00   0.03   0.00
    70   1     0.02   0.01  -0.01     0.03   0.03  -0.01     0.00   0.03   0.00
    71   6     0.01   0.00   0.00     0.01  -0.00   0.00     0.01  -0.00   0.00
    72   1     0.01   0.01  -0.00     0.02  -0.00   0.00     0.02  -0.01   0.01
    73   1     0.02   0.00   0.01     0.01  -0.00   0.00     0.01  -0.00  -0.00
    74   6     0.02  -0.00   0.00     0.01  -0.00   0.00     0.01   0.01   0.00
    75   1     0.01  -0.00   0.01    -0.00  -0.00   0.00    -0.01   0.00  -0.00
    76   1     0.03  -0.01   0.00     0.03  -0.00   0.01     0.01   0.00   0.00
                     22                     23                     24
                      A                      A                      A
 Frequencies --    361.4843               361.7748               363.3619
 Red. masses --     11.9649                11.9845                11.9150
 Frc consts  --      0.9212                 0.9242                 0.9269
 IR Inten    --      0.0000                 0.0000                 0.0000
  Atom  AN      X      Y      Z        X      Y      Z        X      Y      Z
     1   6    -0.05   0.09  -0.11    -0.16  -0.08   0.03     0.07  -0.01  -0.00
     2   6    -0.02   0.07  -0.15    -0.14  -0.03   0.00     0.07   0.07  -0.05
     3   6    -0.00   0.14  -0.08     0.01   0.02  -0.03     0.05   0.02  -0.06
     4   6     0.01   0.18   0.01     0.07   0.00  -0.02     0.09  -0.01   0.00
     5   6     0.02   0.14   0.02     0.03  -0.05   0.02     0.09   0.00   0.07
     6   6    -0.02   0.08  -0.03    -0.11  -0.11   0.01     0.08   0.01   0.08
     7   6    -0.07   0.06  -0.12    -0.16  -0.06   0.04     0.00  -0.08  -0.02
     8   6    -0.03   0.01  -0.11    -0.15  -0.01   0.06    -0.04   0.02  -0.10
     9   6    -0.01  -0.05  -0.14    -0.14  -0.02   0.02     0.01   0.16  -0.09
    10   6    -0.02  -0.13  -0.05    -0.06   0.06  -0.01     0.03   0.19  -0.07
    11   6    -0.03   0.05  -0.02     0.07   0.09  -0.06    -0.01   0.01  -0.07
    12   6    -0.03   0.13   0.03     0.18   0.07   0.01     0.03  -0.06  -0.01
    13   6     0.03   0.07   0.03     0.15   0.07   0.07     0.03  -0.10   0.02
    14   6     0.07   0.03   0.04     0.12   0.05   0.09     0.06  -0.02  -0.01
    15   6     0.11   0.05   0.07     0.03  -0.04   0.05     0.08  -0.00   0.07
    16   6     0.13  -0.08   0.07    -0.03  -0.09   0.02     0.01   0.03   0.12
    17   6     0.01  -0.08   0.04    -0.09  -0.12  -0.03     0.00   0.03   0.14
    18   6    -0.05  -0.10   0.04    -0.07  -0.11  -0.05    -0.08  -0.03   0.10
    19   6    -0.10  -0.03  -0.02    -0.09  -0.07  -0.00    -0.01  -0.15   0.05
    20   6     0.04  -0.00  -0.04    -0.01   0.06   0.08    -0.04  -0.03  -0.09
    21   6    -0.02   0.01   0.02     0.08   0.04   0.07    -0.03  -0.17   0.02
    22   6    -0.06  -0.03   0.01     0.06   0.01   0.02    -0.02  -0.19   0.07
    23   6    -0.08  -0.04   0.07     0.12   0.04  -0.07    -0.08  -0.10   0.02
    24   6    -0.03  -0.13   0.10     0.03  -0.02  -0.13    -0.18   0.01   0.02
    25   6     0.03  -0.13   0.11     0.00   0.00  -0.09    -0.17   0.04  -0.00
    26   6     0.11  -0.13   0.10    -0.01  -0.00  -0.05    -0.04   0.09   0.04
    27   6     0.06  -0.14   0.03     0.02   0.06   0.02     0.05   0.15  -0.06
    28   6     0.07  -0.03   0.04     0.04   0.10   0.06     0.03   0.06  -0.08
    29   6    -0.05   0.05   0.02     0.17   0.09  -0.06    -0.01  -0.03  -0.04
    30   6    -0.07   0.06  -0.11    -0.16  -0.06   0.04    -0.00  -0.10  -0.02
    31   6    -0.10  -0.03  -0.02    -0.08  -0.08  -0.01    -0.02  -0.14   0.05
    32   6    -0.04  -0.10   0.04    -0.06  -0.11  -0.06    -0.09  -0.03   0.10
    33   6     0.03  -0.08   0.03    -0.09  -0.12  -0.03    -0.02   0.03   0.13
    34   6    -0.02   0.07  -0.03    -0.11  -0.11   0.01     0.07   0.01   0.08
    35   6    -0.02   0.08  -0.15    -0.14  -0.03   0.00     0.07   0.05  -0.05
    36   6    -0.01  -0.05  -0.15    -0.14  -0.01   0.02     0.01   0.15  -0.09
    37   6    -0.03   0.02  -0.11    -0.15  -0.01   0.06    -0.04   0.00  -0.09
    38   6     0.03   0.00  -0.04    -0.01   0.06   0.09    -0.05  -0.06  -0.08
    39   6    -0.02   0.02   0.01     0.08   0.04   0.07    -0.04  -0.18   0.03
    40   6    -0.06  -0.03   0.01     0.06   0.01   0.01    -0.03  -0.18   0.07
    41   6     0.10  -0.14   0.10    -0.01   0.00  -0.05    -0.05   0.09   0.04
    42   6     0.14  -0.08   0.07    -0.04  -0.09   0.02    -0.01   0.03   0.12
    43   6     0.12   0.05   0.07     0.03  -0.04   0.05     0.07   0.01   0.07
    44   6     0.02   0.14   0.03     0.03  -0.05   0.02     0.09  -0.00   0.06
    45   6     0.01   0.18   0.02     0.07  -0.00  -0.02     0.09  -0.01  -0.00
    46   6    -0.00   0.14  -0.08     0.01   0.02  -0.03     0.06   0.02  -0.06
    47   6    -0.03  -0.13  -0.05    -0.07   0.06  -0.01     0.04   0.19  -0.07
    48   6    -0.02  -0.08  -0.01     0.03   0.05  -0.08    -0.06   0.11  -0.06
    49   6    -0.04   0.05  -0.02     0.07   0.09  -0.06     0.01   0.00  -0.07
    50   6    -0.05   0.06   0.02     0.17   0.09  -0.05     0.00  -0.03  -0.04
    51   6    -0.03   0.13   0.04     0.18   0.06   0.01     0.04  -0.05  -0.02
    52   6     0.04   0.07   0.04     0.15   0.07   0.07     0.04  -0.09   0.01
    53   6     0.08   0.03   0.05     0.12   0.05   0.09     0.06  -0.00  -0.02
    54   6     0.07  -0.03   0.04     0.04   0.11   0.06     0.03   0.08  -0.08
    55   6     0.06  -0.15   0.03     0.03   0.07   0.02     0.04   0.15  -0.06
    56   6    -0.07  -0.04   0.07     0.10   0.04  -0.07    -0.09  -0.09   0.02
    57   6    -0.01  -0.07  -0.00     0.03   0.05  -0.08    -0.06   0.11  -0.06
    58   6    -0.05   0.10  -0.11    -0.16  -0.08   0.02     0.06  -0.02  -0.00
    59   6    -0.02  -0.12   0.10     0.02  -0.02  -0.13    -0.17   0.01   0.02
    60   6     0.03  -0.13   0.10     0.00   0.00  -0.09    -0.16   0.04  -0.00
    61   6     0.00   0.01  -0.00     0.00   0.00   0.00     0.01  -0.00   0.00
    62   6     0.00   0.00   0.00    -0.00  -0.00   0.00     0.01  -0.00   0.00
    63   6    -0.00   0.00  -0.01    -0.00  -0.00   0.00    -0.00  -0.01  -0.01
    64   1     0.00   0.00  -0.01     0.01  -0.00   0.00     0.01  -0.01  -0.01
    65   1    -0.02   0.01   0.01    -0.01   0.01   0.01    -0.02  -0.01   0.01
    66   1    -0.01  -0.00  -0.02    -0.01  -0.02  -0.01    -0.01  -0.02  -0.02
    67   6    -0.01  -0.00   0.00     0.00   0.00   0.00     0.00   0.01  -0.01
    68   1    -0.01  -0.00   0.01    -0.00   0.00  -0.00    -0.01   0.01  -0.02
    69   1    -0.01  -0.01  -0.01     0.01   0.00   0.01     0.01   0.01  -0.00
    70   1    -0.01  -0.00   0.01     0.01   0.01  -0.00     0.00   0.03  -0.00
    71   6    -0.02   0.00  -0.00     0.01  -0.00   0.00     0.04  -0.00   0.00
    72   1    -0.01  -0.01   0.00    -0.00  -0.00  -0.00     0.05  -0.00   0.01
    73   1    -0.03   0.00  -0.01     0.01  -0.00  -0.00     0.04  -0.00   0.00
    74   6    -0.01  -0.00  -0.00     0.00   0.00   0.00     0.01  -0.01   0.00
    75   1    -0.02   0.00   0.01     0.01   0.00  -0.00     0.01  -0.01   0.01
    76   1    -0.01  -0.01  -0.01     0.00   0.01   0.00     0.01  -0.01   0.00
[...]
 0.00064779,0.00047356,-0.01146928,0.00283674,0.00101803,-0.00335767,0.
 00244435,0.00011539,0.00187128,0.00021293,-0.03633149,0.69930524,-0.00
 000495,0.00000095,-0.00000199,0.00000768,-0.00001609,0.00002372,-0.000
 04924,-0.00001545,0.00006748,0.00001880,0.00000915,0.00002522,0.000000
 47,-0.00000057,-0.00000113,0.00001097,-0.00000316,-0.00000412,0.000082
 86,-0.00002169,0.00001052,-0.00014622,0.00009307,-0.00003002,-0.000070
 12,-0.00000447,0.00006895,0.00038548,-0.00016166,0.00050522,0.00047223
 ,0.00006490,-0.00000097,0.00001319,0.00000548,0.00001935,-0.00000500,0
 .00000176,0.00000054,0.00000381,0.00000013,0.00000013,-0.00000151,0.00
 000002,0.00000005,0.,0.,0.,-0.00000002,0.,0.,0.,0.,0.,-0.00002822,0.00
 000232,0.00000380,0.00005257,-0.00001732,0.00002124,-0.00002008,-0.000
 00255,0.00000895,-0.00002454,0.00000005,0.00001097,0.,0.,0.,0.,0.,0.,0
 .,0.,0.,0.,0.,0.,0.,0.,0.,-0.00000006,-0.00000002,0.00000001,-0.000158
 49,-0.00005997,-0.00009433,0.00005752,0.00007756,0.00002527,-0.0001311
 2,-0.00011220,-0.00007651,0.00011153,0.00019416,0.00023268,0.00016422,
 0.00035808,-0.00059000,-0.00008527,-0.00005900,0.00010654,-0.00000940,
 -0.00000463,0.00000565,0.00000081,0.00000029,-0.00000037,-0.00001055,-
 0.00000598,-0.00000629,-0.00000140,0.00000036,-0.00000012,0.00001847,0
 .00001739,0.00000924,-0.00000933,-0.00001249,0.00008629,0.00256061,0.0
 0059584,-0.00116028,-0.00005175,-0.00068350,0.00086779,0.00027432,0.00
 048175,-0.00030719,-0.00006560,-0.00010279,-0.00001089,-0.00002645,-0.
 00001962,0.00001965,-0.00001198,-0.00000275,0.00000592,0.,0.,0.,0.,0.,
 0.,0.00000003,0.,-0.00000001,-0.00000012,0.,0.00000005,0.00003635,-0.0
 0001195,-0.00001949,-0.00008555,-0.00000456,0.00009559,0.00005249,-0.0
 0003921,-0.00008919,-0.00048153,-0.00011441,0.00023604,-0.00071547,0.0
 0042226,-0.00008176,0.00030033,0.00009085,0.00007189,-0.00053371,-0.00
 005116,-0.00028584,-0.00001871,-0.00003159,-0.00001616,0.00063405,-0.0
 0008137,-0.00004760,-0.00076257,-0.00062647,-0.00055444,-0.08302920,0.
 16399273,-0.36904898,0.00063054,0.01719987,0.01425833,-0.01063911,0.01
 041010,-0.03550545,-0.00071919,0.00093449,-0.00307701,-0.00213852,-0.0
 0063066,0.00048353,0.00148594,-0.00035046,-0.00172923,-0.00012122,-0.0
 0127776,0.00191410,-0.00002761,-0.00004940,0.00028843,-0.00005920,-0.0
 0064089,-0.00072425,-0.00034505,-0.00051758,-0.00089326,-0.00173673,-0
 .00362370,-0.00789079,0.00075248,-0.00349481,0.00183556,-0.00004998,0.
 00107494,0.00054931,0.16004041,-0.05203094,0.75597578,0.00020374,-0.00
 002150,0.00002344,-0.00021284,0.00000771,-0.00010534,0.00007903,0.0001
 4705,0.00024926,-0.00002194,-0.00007344,-0.00005284,-0.00000069,0.0000
 0839,0.00001057,0.00003651,-0.00000232,-0.00000332,0.00018663,-0.00003
 413,-0.00003707,-0.00019516,0.00005569,0.00005642,0.00036361,0.0003237
 3,-0.00007792,-0.00030080,-0.00006897,-0.00014538,-0.00005322,-0.00019
 919,-0.00053800,0.00000901,0.00004737,0.00002497,-0.00000264,-0.000018
 87,0.00000178,0.00000257,0.00000203,-0.00000015,0.00000305,0.00000114,
 -0.00000026,0.,0.,0.,-0.00000003,0.,0.00000001,0.,0.,0.,0.00001612,-0.
 00000051,-0.00000533,0.00012311,-0.00004369,-0.00022271,-0.00001344,-0
 .00001041,0.00005494,0.00001354,0.00000254,-0.00001599,0.,0.,0.,0.,0.,
 0.,0.,0.,0.,0.,0.,0.,0.,0.,0.,0.,0.,0.,-0.00003381,-0.00009038,-0.0000
 3516,0.00000699,0.00001009,0.00000176,-0.00004346,-0.00005592,0.000015
 12,0.00006838,0.00026586,-0.00018235,-0.00003861,0.00010341,0.00012708
 ,-0.00000103,0.00000570,-0.00002215,0.00000105,0.00000093,-0.00000024,
 0.,0.,0.,-0.00000670,-0.00000573,0.00000246,-0.00000764,-0.00000494,-0
 .00000006,0.00001088,0.00002413,-0.00000223,-0.00003993,-0.00001024,0.
 00000132,-0.00138761,-0.00093033,0.00132808,0.00000789,-0.00002979,0.0
 0010879,0.00006220,-0.00010265,-0.00004000,-0.00000225,0.00002550,-0.0
 0002308,0.00000013,0.00000138,-0.00000063,0.00000119,0.00000064,-0.000
 00054,0.,0.,0.,0.,0.,0.,0.,0.,0.,-0.00000003,0.,0.00000001,0.00000007,
 -0.00000708,0.00000411,0.00003321,0.00000777,-0.00003375,-0.00002116,0
 .00005149,-0.00000376,-0.00006711,0.00000023,0.00043725,0.00155777,0.0
 0006537,-0.00046691,0.00014288,0.00007721,0.00006728,0.00088973,0.0002
 6071,0.00025673,0.00000735,0.00000792,-0.00001324,0.00016517,-0.000138
 32,-0.00010442,-0.00121193,-0.00164478,-0.00039813,0.00159964,0.007579
 53,0.00012172,0.00482664,0.00045638,-0.00231389,-0.00201797,0.00035335
 ,0.00189977,-0.00037931,0.00010845,-0.00011712,0.00041322,-0.00007296,
 0.00063747,-0.00001824,0.00027274,-0.00078401,0.00031804,0.00001909,-0
 .00000477,0.00000028,0.00001046,-0.00002836,0.00006144,-0.00008132,-0.
 00001815,0.00012065,0.00002748,-0.00009945,0.00073071,-0.00035160,-0.0
 0008979,0.00017986,-0.00008071,-0.00011996,0.00000258,0.00002600,-0.00
 001100,-0.03559696,0.00778069,-0.00405650,0.02381298,0.00000183,-0.000
 00191,-0.00000213,0.00002251,-0.00001364,-0.00000070,-0.00001762,0.000
 00636,0.00001346,0.00001122,-0.00000415,0.00000333,-0.00000827,-0.0000
 0120,-0.00000118,0.00000630,-0.00000127,-0.00000185,-0.00000561,0.0000
 0148,0.00000181,0.00002457,-0.00001762,-0.00001487,-0.00002973,0.00002
 616,0.00001367,0.00042090,0.00001049,-0.00008913,-0.00007125,0.0000261
 3,-0.00009603,0.00001051,0.00001546,0.00001390,0.00001264,-0.00000220,
 0.00000673,0.00000072,0.00000056,-0.00000004,0.00000085,0.00000032,-0.
 00000007,0.,0.,0.,0.,0.,0.,0.,0.,0.,0.00000003,-0.00000002,0.00000008,
 0.00000939,-0.00001258,-0.00000092,0.00000873,-0.00000200,-0.00000636,
 -0.00000166,-0.00000003,0.00000088,0.,0.,0.,0.,0.,0.,0.,0.,0.,0.,0.,0.
 ,0.,0.,0.,0.,0.,0.,-0.00006274,-0.00002721,-0.00005416,0.00000688,0.00
 001012,0.00000090,-0.00006062,-0.00006505,0.00002161,-0.00003872,0.000
 14081,-0.00011918,0.00006902,0.00015738,0.00009807,0.00000027,0.000014
 89,-0.00002328,0.00000088,0.00000078,-0.00000020,0.,0.,0.,-0.00000695,
 -0.00000595,0.00000255,-0.00000792,-0.00000511,-0.00000007,0.00000577,
 0.00000827,0.00000028,-0.00006739,-0.00004715,-0.00000441,-0.00101089,
 -0.00045483,0.00084478,0.00009646,-0.00000720,0.00012064,0.00001827,-0
 .00006948,-0.00008210,-0.00000988,0.00001142,-0.00000772,-0.00000065,-
 0.00000030,0.00000063,0.00000100,0.00000053,-0.00000045,0.,0.,0.,0.,0.
 ,0.,0.,0.,0.,-0.00000002,0.,0.,0.00000697,-0.00000135,-0.00000407,0.00
 000476,0.00000145,-0.00000625,-0.00000454,0.00003641,-0.00000402,-0.00
 001925,0.00002451,0.00002552,0.00050534,0.00002618,-0.00008407,0.00018
 320,0.00010711,0.00016092,-0.00013177,0.00023389,-0.00001918,0.0000083
 4,0.00000955,-0.00001429,0.00007277,-0.00023650,-0.00000782,-0.0009313
 7,-0.00072373,-0.00010290,-0.00021723,-0.01515539,-0.00129080,0.001307
 53,0.00162036,0.00357213,-0.00107225,0.00216216,-0.00195169,0.00057970
 ,0.00148446,0.00196676,0.00017652,0.00011459,-0.00098025,-0.00041835,0
 .00008731,-0.00099882,0.00001193,-0.00087649,0.00014332,0.00003193,-0.
 00009957,0.00012057,0.00043971,-0.00040503,0.00068624,-0.00002122,-0.0
 0032784,0.00055031,-0.00021697,0.00209566,-0.00062410,0.00007215,-0.00
 124606,-0.00038269,-0.00002614,-0.00034654,-0.00017256,0.00746776,-0.3
 2337928,-0.01646611,-0.00874314,0.33849731,-0.00000471,-0.00000160,0.0
 0000040,0.00001785,-0.00001389,-0.00001705,-0.00006142,0.00002104,-0.0
 0001655,0.00001989,-0.00000686,0.00000902,-0.00000988,-0.00000194,-0.0
 0000187,0.00000748,-0.00000175,-0.00000250,-0.00002250,0.00000470,0.00
 000352,0.00001069,-0.00000835,-0.00002174,-0.00002940,-0.00001176,0.00
 004672,0.00002013,-0.00004641,-0.00009265,0.00008443,0.00002383,-0.000
 07134,-0.00000103,0.00001759,0.00000769,-0.00000336,-0.00000526,-0.000
 00055,0.00000089,0.00000070,-0.00000005,0.00000105,0.00000040,-0.00000
 009,0.,0.,0.,0.,0.,0.,0.,0.,0.,-0.00000273,0.00000017,0.00000059,0.000
 00941,-0.00000297,0.00000359,-0.00001894,0.00000399,0.00000829,0.00000
 361,-0.00000031,-0.00000045,0.,0.,0.,0.,0.,0.,0.,0.,0.,0.,0.,0.,0.,0.,
 0.,0.,0.,0.,0.00000841,-0.00004700,0.00000118,-0.00000436,-0.00000705,
 -0.00000306,-0.00001232,-0.00001244,0.00000308,0.00008462,0.00008907,-
 0.00000812,0.00004761,-0.00007298,-0.00007785,0.00000592,-0.00000120,0
 .00000885,-0.00000087,-0.00000077,0.00000019,0.,0.,0.,-0.00000044,-0.0
 0000037,0.00000018,-0.00000052,-0.00000034,0.,0.00000346,0.00000876,-0
 .00000084,-0.00000868,-0.00000378,-0.00000301,0.00124530,0.00049220,-0
 .00063765,-0.00037798,-0.00013509,0.00013894,-0.00009071,0.00004151,0.
 00009024,0.00001000,-0.00001193,0.00001608,0.00000007,-0.00000057,0.00
 000017,-0.00000099,-0.00000053,0.00000045,0.,0.,0.,0.,0.,0.,0.,0.,0.,0
 .00000002,0.,0.,-0.00000366,0.00000360,0.00000046,-0.00001720,-0.00000
 552,0.00002091,0.00001476,-0.00002855,-0.00001542,0.00003436,-0.000017
 72,-0.00008013,-0.00073529,0.00002413,0.00027497,0.00006648,0.00005870
 ,0.00000623,0.00026079,0.00006541,0.00020902,0.00000126,0.00000193,-0.
 00000132,-0.00007323,-0.00008854,-0.00000932,-0.00071404,-0.00012054,0
 .00007281,-0.00057144,0.02512148,0.00344956,-0.00237030,0.00123146,-0.
 00373569,0.00184046,0.00246687,0.00189734,-0.00024530,0.00006230,-0.00
 091257,-0.00002371,0.00050125,-0.00088495,-0.00017342,0.00016785,0.000
 61534,-0.00000901,-0.00008583,-0.00003041,-0.00003608,0.00006535,-0.00
 012547,-0.00013253,-0.00010319,-0.00012919,0.00000418,-0.00007648,0.00
 000556,-0.00006149,-0.00018031,0.00059528,-0.00002035,-0.00048257,0.00
 005846,-0.00001693,0.00010766,-0.00008344,-0.00418136,-0.01913391,-0.0
 5320676,0.00670975,0.01415039,0.05199244,0.00006674,-0.00002028,-0.000
 00645,-0.00021857,0.00011959,0.00003112,0.00007988,-0.00016721,-0.0000
 9147,0.00003725,0.00001863,0.00003706,0.00004147,0.00002032,0.00001072
 ,-0.00002584,0.00000185,0.00000704,0.00006308,-0.00001535,-0.00001672,
 -0.00012030,0.00003889,0.00005469,0.00023956,-0.00003382,-0.00014438,-
 0.00083570,0.00045910,-0.00002749,-0.00031031,0.00019175,0.00022038,-0
 .00025731,-0.00008363,0.00000773,0.00016919,0.00011611,0.00001450,-0.0
 0004182,-0.00000890,0.00000087,0.00005509,-0.00000085,-0.00000843,-0.0
 0000007,0.,0.00000003,0.00000006,0.,-0.00000002,0.,0.,0.,0.00000619,-0
 .00000025,-0.00000182,0.00001124,-0.00003928,-0.00007123,0.00000104,-0
 .00000269,0.00001199,0.00000577,0.00000075,-0.00000552,0.,0.,0.,0.,0.,
 0.,0.,0.,0.,0.,0.,0.,0.,0.,0.,0.00000280,0.00000443,-0.00000300,0.0000
 0462,0.00033634,-0.00043630,-0.00001683,0.00003662,-0.00005101,0.00000
 306,-0.00009794,0.00002526,0.00005461,-0.00033557,-0.00001623,0.000261
 44,0.00024266,-0.00013647,-0.00018769,-0.00004903,0.00009022,0.0000101
 7,0.00000305,-0.00000938,-0.00000349,-0.00000100,0.00000253,0.00000621
 ,-0.00000918,0.00002690,0.00006957,0.00006321,-0.00002718,-0.00011983,
 -0.00018080,0.00006966,0.00003801,-0.00004896,-0.00006952,-0.00030485,
 0.00014845,-0.00039749,-0.00019554,0.00028807,0.00018099,0.00003459,-0
 .00013622,0.00003000,0.00001301,0.00002293,-0.00007931,-0.00001097,0.0
 0000336,0.00001397,0.00000810,0.00000097,-0.00000391,0.,0.,0.,0.,0.,0.
 ,-0.00000004,0.,0.00000001,-0.00000001,0.,0.,0.00000856,-0.00000399,-0
 .00000473,0.00002683,-0.00000140,-0.00002683,-0.00002981,0.00002709,-0
 .00001487,0.00006189,0.00003702,0.00006301,-0.00007574,-0.00009370,0.0
 0048664,-0.00046103,-0.00035301,0.00011708,-0.00053471,-0.00019601,0.0
 0048713,-0.00002839,-0.00000864,0.00006820,-0.00134366,0.00018263,0.00
 047701,0.00122606,-0.00068503,-0.00000374,-0.00127662,-0.00374297,-0.0
 0788684,-0.00146314,-0.00122575,0.00098989,0.00539882,0.00050364,-0.00
 195378,0.00071363,0.00035151,0.00026722,0.00040987,-0.00061253,-0.0009
 4844,0.00044292,0.00058160,0.00009007,0.00030118,0.00031390,-0.0003494
 5,-0.00020787,0.00012019,0.00004957,0.00040457,-0.00009575,0.00054958,
 -0.00001216,-0.00008799,0.00009774,0.00083351,-0.00153999,0.00045875,-
 0.00127236,0.00124321,-0.00043611,0.00023936,-0.00006010,0.00000081,-0
 .04681050,-0.02382905,-0.06173695,0.00561667,0.00160480,-0.00047668,0.
 03919854,-0.00001673,-0.00000047,-0.00000361,0.00005278,-0.00000630,0.
 00001436,-0.00004150,-0.00003892,-0.00003074,0.00006647,-0.00001223,0.
 00002986,-0.00001592,0.00000012,-0.00000126,0.00000316,-0.00000213,-0.
 00000186,-0.00002216,0.00000490,0.00000560,0.00005706,-0.00001991,-0.0
 0001585,-0.00013906,0.00001407,0.00001147,0.00014225,-0.00012241,-0.00
 007396,0.00003672,0.00016701,0.00012137,-0.00009683,0.00003449,-0.0000
 0951,0.00003746,0.00001569,0.00000238,-0.00001856,-0.00000242,-0.00000
 007,0.00001783,-0.00000033,-0.00000222,-0.00000002,0.,0.,0.,0.,0.,0.,0
 .,0.,-0.00000242,0.00000009,0.00000073,0.00001248,-0.00000378,0.000015
 36,0.00000046,0.00000140,-0.00000582,-0.00000248,-0.00000030,0.0000023
 0,0.,0.,0.,0.,0.,0.,0.,0.,0.,0.,0.,0.,0.,0.,0.,-0.00000138,0.00000040,
 -0.00000028,0.00009209,-0.00002826,-0.00011715,-0.00003119,0.00000193,
 -0.00002748,0.00009889,0.00004887,-0.00000966,-0.00009514,-0.00020271,
 -0.00005977,0.00033175,-0.00003714,-0.00019576,-0.00015826,-0.00005350
 ,0.00009953,0.00001007,0.00000350,-0.00000866,-0.00000358,-0.00000111,
 0.00000230,0.00001136,0.00000239,0.00001238,0.00003499,0.00002549,-0.0
 0000800,-0.00005137,-0.00006181,0.00002699,0.00009737,-0.00001363,-0.0
 0001623,-0.00005262,-0.00028350,0.00007015,0.00010750,0.00029198,-0.00
 009234,0.00005521,-0.00004297,-0.00007684,0.00000887,0.00000709,-0.000
 04301,-0.00000954,0.00000229,0.00001211,0.00000694,0.00000114,-0.00000
 321,0.,0.,0.,0.,0.,0.,-0.00000003,0.,0.00000001,0.,0.,0.,0.00000639,-0
 .00000123,-0.00000478,-0.00000197,-0.00000352,0.00000250,0.00000208,0.
 00003764,-0.00000660,-0.00006538,0.00003627,0.00004932,0.00002603,-0.0
 0002675,-0.00004848,-0.00045075,0.00008494,-0.00017645,0.00031360,-0.0
 0013461,-0.00006688,-0.00002282,-0.00000107,0.00005168,-0.00043883,-0.
 00024086,0.00013832,-0.00041755,-0.00027365,0.00021664,0.00337322,0.01
 017988,0.01532470,-0.00064490,0.00081407,-0.00084669,0.00066396,-0.000
 01686,0.00192039,0.00008028,0.00002617,0.00025729,-0.00056653,0.000086
 85,-0.00111054,0.00012641,0.00014908,-0.00120263,0.00003009,0.00023130
 ,0.00048922,-0.00023128,0.00066704,-0.00089728,-0.00069941,0.00016416,
 -0.00102976,0.00029386,0.00015522,-0.00133542,0.00140100,-0.00209950,0
 .00454442,-0.00103517,-0.00281452,-0.00118214,0.00023175,-0.00126993,0
 .00055909,-0.02386595,-0.11731374,-0.11467955,-0.00531524,-0.00339556,
 -0.02401403,0.02668420,0.11527013,-0.00000863,-0.00000270,-0.00000353,
 0.00000412,0.00002396,0.00001148,0.00002985,-0.00006512,-0.00000925,0.
 00000104,0.00001485,0.00000674,-0.00000405,0.00000133,-0.00000107,-0.0
 0000469,-0.00000051,0.00000018,-0.00001888,0.00000428,0.00000504,0.000
 03493,0.00000096,-0.00000179,-0.00004536,-0.00006215,0.00000484,0.0002
 4395,-0.00001397,0.00018685,-0.00005355,0.00011176,0.00006591,-0.00005
 429,-0.00002737,0.00000112,0.00003672,0.00001995,0.00000714,-0.0000043
 4,-0.00000127,0.00000027,0.00001025,0.00000015,-0.00000175,-0.00000002
 ,0.,0.,0.,0.,0.,0.,0.,0.,-0.00000303,0.00000017,0.00000071,0.00000971,
 0.00001936,0.00001726,-0.00000863,0.00000132,0.00000182,-0.00000102,-0
 .00000028,0.00000154,0.,0.,0.,0.,0.,0.,0.,0.,0.,0.,0.,0.,0.,0.,0.,0.00
 000152,0.00000124,-0.00000083,-0.00005924,0.00001213,-0.00021044,0.000
 03434,0.00001144,0.00000747,0.00002097,-0.00002798,-0.00004457,0.00031
 197,0.00014856,0.00026466,-0.00032942,-0.00015713,-0.00013394,0.000197
 03,0.00006592,-0.00008944,-0.00000457,-0.00000072,0.00000517,0.0000002
 4,-0.00000027,-0.00000152,-0.00002190,-0.00001659,0.00000040,0.0000000
 9,0.00000573,-0.00000405,-0.00002992,-0.00003683,0.00000140,0.00007536
 ,0.00010344,0.00001612,0.00132370,0.00040933,-0.00063823,-0.00012088,-
 0.00038509,0.00013195,-0.00002424,0.00015263,0.00006694,0.00000102,-0.
 00001872,0.00005369,0.00000849,-0.00000285,-0.00001060,-0.00000932,-0.
 00000093,0.00000502,0.,0.,0.,0.,0.,0.,0.00000004,0.,-0.00000002,0.0000
 0001,0.,0.,-0.00001152,0.00000399,0.00000690,-0.00002442,0.00000175,0.
 00002542,0.00003351,-0.00004159,-0.00001222,-0.00006310,-0.00001774,0.
 00002827,-0.00012841,0.00004350,-0.00022671,-0.00006367,-0.00014263,0.
 00009223,0.00003892,-0.00000630,-0.00020621,0.00000084,-0.00001529,-0.
 00003595,0.00019881,-0.00029455,-0.00033563,-0.00196810,0.00010037,0.0
 0067520,-0.00412847,-0.01284619,-0.02146344,0.00079389,-0.00478436,0.0
 0138200,-0.00263153,0.00090364,-0.00328272,-0.00009270,0.00088624,0.00
 070262,-0.00027144,0.00023858,-0.00113309,-0.00041505,-0.00026942,-0.0
 0140906,-0.00019821,0.00112329,-0.00106177,0.00003250,0.00062100,-0.00
 018328,0.00073142,-0.00022402,0.00099635,-0.00049587,-0.00024189,0.001
 51793,-0.00003021,-0.00276354,0.00026606,-0.00039745,0.00086261,-0.001
 04902,-0.00012099,0.00049452,0.00005480,-0.06076532,-0.10843896,-0.302
 37952,-0.00196613,0.00109498,0.00063250,0.07040336,0.12342397,0.326685
 55\\-0.00000068,-0.00000071,-0.00000043,0.00000204,0.00000196,0.000002
 11,-0.00000002,-0.00000157,0.00000008,-0.00000066,0.00000098,0.0000005
 2,0.00000034,-0.00000058,-0.00000033,0.00000064,0.00000085,0.00000016,
 -0.00000196,0.00000041,0.00000022,0.00000332,-0.00000032,0.00000106,-0
 .00000343,-0.00000173,-0.00000190,0.00000632,-0.00000088,-0.00000599,0
 .00000081,0.00000014,-0.00000505,0.00000156,-0.00000051,0.00000017,-0.
 00000065,-0.00000016,0.00000058,0.00000049,-0.00000003,-0.00000021,-0.
 00000024,0.00000030,0.00000002,0.00000027,0.00000058,-0.00000022,-0.00
 000017,-0.00000060,0.00000014,-0.00000037,-0.00000025,0.00000008,0.000
 00115,0.00000014,-0.00000087,-0.00000790,0.00000127,0.00000140,0.00000
 318,0.00000040,-0.00000157,-0.00000158,-0.00000079,0.00000091,0.000000
 92,0.00000100,0.00000018,-0.00000034,-0.00000057,-0.00000047,0.0000001
 3,0.00000048,0.00000018,0.00000019,-0.00000047,0.00000022,-0.00000031,
 0.00000007,-0.00000010,0.00000031,-0.00000018,0.00000024,-0.00000165,0
 .00000084,0.00000083,-0.00000209,-0.00000018,0.00000214,0.00000075,-0.
 00000044,-0.00000263,0.00000331,-0.00000066,0.00000684,-0.00000322,-0.
 00000536,-0.00000947,0.00000058,0.00000502,0.00000548,0.00000116,-0.00
 000053,-0.00000053,-0.00000092,-0.00000020,0.00000023,0.00000161,0.000
 00027,0.00000015,-0.00000050,0.00000024,-0.00000041,-0.00000007,-0.000
 00090,-0.00000037,0.00000094,0.00000246,0.00000063,-0.00001814,-0.0000
 0267,0.00000177,0.00001311,0.00000397,-0.00000443,-0.00000261,0.000002
 00,0.00000211,0.00000232,-0.00000290,-0.00000337,-0.00000162,0.0000006
 2,0.00000066,0.00000046,0.00000047,0.00000027,0.00000022,0.00000037,0.
 00000016,-0.00000019,-0.00000024,-0.00000018,-0.00000010,-0.00000032,-
 0.00000025,0.00000022,0.00000046,0.00000018,-0.00000082,-0.00000133,0.
 00000035,0.00000308,0.00000122,-0.00000202,-0.00000203,-0.00000383,0.0
 0000345,0.00000580,0.00000137,-0.00000441,0.00000216,-0.00000116,0.000
 00444,-0.00000011,-0.00000317,-0.00000027,-0.00000231,-0.00000203,0.00
 001225,-0.00000214,-0.00000129,-0.00000286,0.00000289,0.00000267,0.000
 00062,0.00000421,0.00001033,-0.00000792,0.00000166,-0.00000036,-0.0000
 0207,-0.00000631,-0.00000148,-0.00000555,0.00000018,0.00000017,0.00000
 116,-0.00000040,-0.00000061,-0.00000109,-0.00000084,0.00000029,-0.0000
 0004,0.00000044,-0.00000005,0.00000034,-0.00001682,0.00000899,-0.00001
 062,0.00000046,-0.00000079,0.00000011,0.00000103,0.00000089,-0.0000000
 9,0.00001269,-0.00000872,0.00001590,0.00000324,0.00000832,0.00001036,-
 0.00000043,-0.00000032,-0.00000240,0.00000119,-0.00000264,-0.00000176,
 0.00000081,-0.00000435,-0.00000088,-0.00000063,-0.00000100,0.00000195,
 -0.00000394,-0.00000270,0.00000008\\\@


 THE MORE PROGRESS PHYSICAL SCIENCES MAKE, THE MORE THEY TEND TO ENTER
 THE DOMAIN OF MATHEMATICS, WHICH IS A KIND OF CENTRE TO WHICH THEY ALL
 CONVERGE.  WE MAY EVEN JUDGE THE DEGREE OF PERFECTION TO WHICH A 
 SCIENCE HAS ARRIVED BY THE FACILITY WITH WHICH IT MAY BE SUBMITTED
 TO CALCULATION.

                               -- ADOLPHE QUETELET, 1796-1874
 Job cpu time:       0 days  0 hours  0 minutes  0.7 seconds.
 Elapsed time:       0 days  0 hours  0 minutes  9.7 seconds.
 File lengths (MBytes):  RWF=     22 Int=      0 D2E=      0 Chk=      3 Scr=      2
 Normal termination of Gaussian 16 at Wed Jun 11 09:17:17 2025.
