 Entering Gaussian System, Link 0=/mlatom/software/Gaussian/g16-avx2/g16
 Input=gaussian.com
 Output=gaussian.log
 Initial command:
 /mlatom/software/Gaussian/g16-avx2/l1.exe "/mlatom/home/huangyh/projects/delta_learning/paper/revision1/Starting_from_ub3lyp_d4/da/b3lyp/b3lyp/ts/irc/r_calcall/Gau-168086.inp" -scrdir="/mlatom/home/huangyh/projects/delta_learning/paper/revision1/Starting_from_ub3lyp_d4/da/b3lyp/b3lyp/ts/irc/r_calcall/"
 Entering Link 1 = /mlatom/software/Gaussian/g16-avx2/l1.exe PID=    168088.
  
 Copyright (c) 1988,1990,1992,1993,1995,1998,2003,2009,2016,
            Gaussian, Inc.  All Rights Reserved.
  
 This is part of the Gaussian(R) 16 program.  It is based on
 the Gaussian(R) 09 system (copyright 2009, Gaussian, Inc.),
 the Gaussian(R) 03 system (copyright 2003, Gaussian, Inc.),
 the Gaussian(R) 98 system (copyright 1998, Gaussian, Inc.),
 the Gaussian(R) 94 system (copyright 1995, Gaussian, Inc.),
 the Gaussian 92(TM) system (copyright 1992, Gaussian, Inc.),
 the Gaussian 90(TM) system (copyright 1990, Gaussian, Inc.),
 the Gaussian 88(TM) system (copyright 1988, Gaussian, Inc.),
 the Gaussian 86(TM) system (copyright 1986, Carnegie Mellon
 University), and the Gaussian 82(TM) system (copyright 1983,
 Carnegie Mellon University). Gaussian is a federally registered
 trademark of Gaussian, Inc.
  
 This software contains proprietary and confidential information,
 including trade secrets, belonging to Gaussian, Inc.
  
 This software is provided under written license and may be
 used, copied, transmitted, or stored only in accord with that
 written license.
  
 The following legend is applicable only to US Government
 contracts under FAR:
  
                    RESTRICTED RIGHTS LEGEND
  
 Use, reproduction and disclosure by the US Government is
 subject to restrictions as set forth in subparagraphs (a)
 and (c) of the Commercial Computer Software - Restricted
 Rights clause in FAR 52.227-19.
  
 Gaussian, Inc.
 340 Quinnipiac St., Bldg. 40, Wallingford CT 06492
  
  
 ---------------------------------------------------------------
 Warning -- This program may not be used in any manner that
 competes with the business of Gaussian, Inc. or will provide
 assistance to any competitor of Gaussian, Inc.  The licensee
 of this program is prohibited from giving any competitor of
 Gaussian, Inc. access to this program.  By using this program,
 the user acknowledges that Gaussian, Inc. is engaged in the
 business of creating and licensing software in the field of
 computational chemistry and represents and warrants to the
 licensee that it is not a competitor of Gaussian, Inc. and that
 it will not use this program in any manner prohibited above.
 ---------------------------------------------------------------
  

 Cite this work as:
 Gaussian 16, Revision A.03,
 M. J. Frisch, G. W. Trucks, H. B. Schlegel, G. E. Scuseria, 
 M. A. Robb, J. R. Cheeseman, G. Scalmani, V. Barone, 
 G. A. Petersson, H. Nakatsuji, X. Li, M. Caricato, A. V. Marenich, 
 J. Bloino, B. G. Janesko, R. Gomperts, B. Mennucci, H. P. Hratchian, 
 J. V. Ortiz, A. F. Izmaylov, J. L. Sonnenberg, D. Williams-Young, 
 F. Ding, F. Lipparini, F. Egidi, J. Goings, B. Peng, A. Petrone, 
 T. Henderson, D. Ranasinghe, V. G. Zakrzewski, J. Gao, N. Rega, 
 G. Zheng, W. Liang, M. Hada, M. Ehara, K. Toyota, R. Fukuda, 
 J. Hasegawa, M. Ishida, T. Nakajima, Y. Honda, O. Kitao, H. Nakai, 
 T. Vreven, K. Throssell, J. A. Montgomery, Jr., J. E. Peralta, 
 F. Ogliaro, M. J. Bearpark, J. J. Heyd, E. N. Brothers, K. N. Kudin, 
 V. N. Staroverov, T. A. Keith, R. Kobayashi, J. Normand, 
 K. Raghavachari, A. P. Rendell, J. C. Burant, S. S. Iyengar, 
 J. Tomasi, M. Cossi, J. M. Millam, M. Klene, C. Adamo, R. Cammi, 
 J. W. Ochterski, R. L. Martin, K. Morokuma, O. Farkas, 
 J. B. Foresman, and D. J. Fox, Gaussian, Inc., Wallingford CT, 2016.
 
 ******************************************
 Gaussian 16:  ES64L-G16RevA.03 25-Dec-2016
                26-May-2025 
 ******************************************
 %nproc=1
 Will use up to    1 processors via shared memory.
 ----------------------------------------------------------------------
 #p Freq external='/mlatom/software/miniconda3/bin/python /mlatom/softw
 are/mlatom_xacs/mlatom/interfaces/gaussian_interface.py model_predict_
 kwargs'
 ----------------------------------------------------------------------
 1/10=4,18=10,30=1,38=1/1,3;
 2/12=2,17=6,18=5,40=1/2;
 3/11=9,25=1,30=1,41=9900000,43=2,71=2,140=1/1;
 4/20=17,22=2,24=3,113=1,114=1/2;
 6/7=2,8=2,9=2,10=2/1;
 7/8=1,25=1,44=-1/16;
 1/10=4,18=10,30=1/3;
 99//99;
 Leave Link    1 at Mon May 26 07:29:27 2025, MaxMem=           0 cpu:               0.0 elap:               0.0
 (Enter /mlatom/software/Gaussian/g16-avx2/l101.exe)
 ------------------------------------
 97a4dc0e-8953-46ae-99b7-2d00735b9a94
 ------------------------------------
 Symbolic Z-matrix:
 Charge =  0 Multiplicity = 1
 C                     1.19296  -1.53499   0.58753 
 C                     1.52478  -0.80367  -0.48499 
 H                     0.78481  -1.08123   1.48715 
 H                     1.31051  -2.61478   0.59491 
 H                     1.87889  -1.3195   -1.37812 
 C                     1.43599   0.66045  -0.59082 
 C                     1.56882   1.52947   0.42043 
 H                     1.27099   1.05131  -1.59526 
 H                     1.47651   2.60019   0.2629 
 H                     1.78946   1.20141   1.43316 
 C                    -2.71997  -0.58548  -0.15535 
 C                    -2.63675   0.71742   0.10559 
 H                    -3.67731  -1.09599  -0.23461 
 H                    -1.83036  -1.194    -0.29871 
 H                    -1.67625   1.22124   0.18285 
 H                    -3.52231   1.33214   0.25141 
 
 ITRead=  0  0  0  0  0  0  0  0  0  0  0  0  0  0  0  0
 MicOpt= -1 -1 -1 -1 -1 -1 -1 -1 -1 -1 -1 -1 -1 -1 -1 -1
 NAtoms=     16 NQM=       16 NQMF=       0 NMMI=      0 NMMIF=      0
                NMic=       0 NMicF=      0.
                    Isotopes and Nuclear Properties:
 (Nuclear quadrupole moments (NQMom) in fm**2, nuclear magnetic moments (NMagM)
  in nuclear magnetons)

  Atom         1           2           3           4           5           6           7           8           9          10
 IAtWgt=          12          12           1           1           1          12          12           1           1           1
 AtmWgt=  12.0000000  12.0000000   1.0078250   1.0078250   1.0078250  12.0000000  12.0000000   1.0078250   1.0078250   1.0078250
 NucSpn=           0           0           1           1           1           0           0           1           1           1
 AtZEff=  -0.0000000  -0.0000000  -0.0000000  -0.0000000  -0.0000000  -0.0000000  -0.0000000  -0.0000000  -0.0000000  -0.0000000
 NQMom=    0.0000000   0.0000000   0.0000000   0.0000000   0.0000000   0.0000000   0.0000000   0.0000000   0.0000000   0.0000000
 NMagM=    0.0000000   0.0000000   2.7928460   2.7928460   2.7928460   0.0000000   0.0000000   2.7928460   2.7928460   2.7928460
 AtZNuc=   6.0000000   6.0000000   1.0000000   1.0000000   1.0000000   6.0000000   6.0000000   1.0000000   1.0000000   1.0000000

  Atom        11          12          13          14          15          16
 IAtWgt=          12          12           1           1           1           1
 AtmWgt=  12.0000000  12.0000000   1.0078250   1.0078250   1.0078250   1.0078250
 NucSpn=           0           0           1           1           1           1
 AtZEff=  -0.0000000  -0.0000000  -0.0000000  -0.0000000  -0.0000000  -0.0000000
 NQMom=    0.0000000   0.0000000   0.0000000   0.0000000   0.0000000   0.0000000
 NMagM=    0.0000000   0.0000000   2.7928460   2.7928460   2.7928460   2.7928460
 AtZNuc=   6.0000000   6.0000000   1.0000000   1.0000000   1.0000000   1.0000000
 Leave Link  101 at Mon May 26 07:29:28 2025, MaxMem=   104857600 cpu:               0.2 elap:               0.3
 (Enter /mlatom/software/Gaussian/g16-avx2/l103.exe)

 GradGradGradGradGradGradGradGradGradGradGradGradGradGradGradGradGradGrad
 Berny optimization.
 Initialization pass.
 Trust Radius=3.00D-01 FncErr=1.00D-07 GrdErr=1.00D-07 EigMax=2.50D+02 EigMin=1.00D-04
 Number of steps in this run=      2 maximum allowed number of steps=      2.
 GradGradGradGradGradGradGradGradGradGradGradGradGradGradGradGradGradGrad

 Leave Link  103 at Mon May 26 07:29:28 2025, MaxMem=   104857600 cpu:               0.0 elap:               0.1
 (Enter /mlatom/software/Gaussian/g16-avx2/l202.exe)
                          Input orientation:                          
 ---------------------------------------------------------------------
 Center     Atomic      Atomic             Coordinates (Angstroms)
 Number     Number       Type             X           Y           Z
 ---------------------------------------------------------------------
      1          6           0        1.192962   -1.534987    0.587527
      2          6           0        1.524781   -0.803670   -0.484995
      3          1           0        0.784811   -1.081226    1.487149
      4          1           0        1.310507   -2.614777    0.594911
      5          1           0        1.878888   -1.319499   -1.378120
      6          6           0        1.435993    0.660449   -0.590821
      7          6           0        1.568823    1.529473    0.420427
      8          1           0        1.270995    1.051315   -1.595258
      9          1           0        1.476509    2.600189    0.262903
     10          1           0        1.789459    1.201413    1.433155
     11          6           0       -2.719970   -0.585484   -0.155348
     12          6           0       -2.636746    0.717421    0.105594
     13          1           0       -3.677308   -1.095994   -0.234605
     14          1           0       -1.830359   -1.194001   -0.298706
     15          1           0       -1.676253    1.221237    0.182854
     16          1           0       -3.522310    1.332138    0.251412
 ---------------------------------------------------------------------
                    Distance matrix (angstroms):
                    1          2          3          4          5
     1  C    0.000000
     2  C    1.339862   0.000000
     3  H    1.087109   2.124604   0.000000
     4  H    1.086195   2.119485   1.850466   0.000000
     5  H    2.093012   1.090479   3.076288   2.427685   0.000000
     6  C    2.503498   1.470621   2.788445   3.485514   2.176279
     7  C    3.091942   2.503055   2.927169   4.155957   3.383423
     8  H    3.385202   2.176709   3.779595   4.270671   2.457121
     9  H    4.157578   3.485389   3.940817   5.228160   4.268351
    10  H    2.925539   2.787420   2.494529   3.936414   3.777071
    11  C    4.094442   4.263120   3.902185   4.574458   4.814920
    12  C    4.469033   4.469991   4.104981   5.188813   5.171209
    13  H    4.958644   5.216309   4.782799   5.279498   5.677051
    14  H    3.168935   3.382902   3.168771   3.561206   3.865152
    15  H    3.999116   3.846153   3.613773   4.879091   4.640152
    16  H    5.528759   5.529657   5.089466   6.249180   6.233739
                    6          7          8          9         10
     6  C    0.000000
     7  C    1.339951   0.000000
     8  H    1.090365   2.092922   0.000000
     9  H    2.119688   1.086171   2.427758   0.000000
    10  H    2.124631   1.087162   3.076137   1.850406   0.000000
    11  C    4.360507   4.816463   4.547555   5.285252   5.104047
    12  C    4.132244   4.294806   4.274906   4.526414   4.646284
    13  H    5.418287   5.902884   5.563094   6.361691   6.159956
    14  H    3.767409   4.414624   4.042386   5.064253   4.673375
    15  H    3.255631   3.268329   3.446277   3.442067   3.684401
    16  H    5.073982   5.097759   5.144398   5.157158   5.443207
                   11         12         13         14         15
    11  C    0.000000
    12  C    1.331382   0.000000
    13  H    1.087841   2.118249   0.000000
    14  H    1.087315   2.113588   1.850658   0.000000
    15  H    2.113757   1.087357   3.089993   2.467595   0.000000
    16  H    2.118131   1.087826   2.481141   3.089775   1.850656
                   16
    16  H    0.000000
 Stoichiometry    C6H10
 Framework group  C1[X(C6H10)]
 Deg. of freedom    42
 Full point group                 C1      NOp   1
 Largest Abelian subgroup         C1      NOp   1
 Largest concise Abelian subgroup C1      NOp   1
                         Standard orientation:                         
 ---------------------------------------------------------------------
 Center     Atomic      Atomic             Coordinates (Angstroms)
 Number     Number       Type             X           Y           Z
 ---------------------------------------------------------------------
      1          6           0        1.192962    1.534987   -0.587527
      2          6           0        1.524781    0.803670    0.484995
      3          1           0        0.784811    1.081226   -1.487149
      4          1           0        1.310507    2.614777   -0.594911
      5          1           0        1.878888    1.319499    1.378120
      6          6           0        1.435993   -0.660449    0.590821
      7          6           0        1.568823   -1.529473   -0.420427
      8          1           0        1.270995   -1.051315    1.595258
      9          1           0        1.476509   -2.600189   -0.262903
     10          1           0        1.789459   -1.201413   -1.433155
     11          6           0       -2.719970    0.585484    0.155348
     12          6           0       -2.636746   -0.717421   -0.105594
     13          1           0       -3.677308    1.095994    0.234605
     14          1           0       -1.830359    1.194001    0.298706
     15          1           0       -1.676253   -1.221237   -0.182854
     16          1           0       -3.522310   -1.332138   -0.251412
 ---------------------------------------------------------------------
 Rotational constants (GHZ):           3.9512502           1.4870880           1.1990609
 Leave Link  202 at Mon May 26 07:29:28 2025, MaxMem=   104857600 cpu:               0.0 elap:               0.1
 (Enter /mlatom/software/Gaussian/g16-avx2/l301.exe)
 Standard basis: STO-3G (5D, 7F)
 Ernie: Thresh=  0.10000D-02 Tol=  0.10000D-05 Strict=F.
 There are    40 symmetry adapted cartesian basis functions of A   symmetry.
 There are    40 symmetry adapted basis functions of A   symmetry.
    40 basis functions,   120 primitive gaussians,    40 cartesian basis functions
    23 alpha electrons       23 beta electrons
       nuclear repulsion energy       195.7349845436 Hartrees.
 IExCor=    0 DFT=F Ex=HF Corr=None ExCW=0 ScaHFX=  1.000000
 ScaDFX=  1.000000  1.000000  1.000000  1.000000 ScalE2=  1.000000  1.000000
 IRadAn=      5 IRanWt=     -1 IRanGd=            0 ICorTp=0 IEmpDi=  4
 NAtoms=   16 NActive=   16 NUniq=   16 SFac= 1.00D+00 NAtFMM=   60 NAOKFM=F Big=F
 Integral buffers will be    131072 words long.
 Raffenetti 1 integral format.
 Two-electron integral symmetry is turned on.
 Leave Link  301 at Mon May 26 07:29:28 2025, MaxMem=   104857600 cpu:               0.1 elap:               0.1
 (Enter /mlatom/software/Gaussian/g16-avx2/l402.exe)
 External calculation of energy, first and second derivatives.
 Running external command "/mlatom/software/miniconda3/bin/python /mlatom/software/mlatom_xacs/mlatom/interfaces/gaussian_interface.py model_predict_kwargs R"
         input file       "/mlatom/home/huangyh/projects/delta_learning/paper/revision1/Starting_from_ub3lyp_d4/da/b3lyp/b3lyp/ts/irc/r_calcall/Gau-168088.EIn"
         output file      "/mlatom/home/huangyh/projects/delta_learning/paper/revision1/Starting_from_ub3lyp_d4/da/b3lyp/b3lyp/ts/irc/r_calcall/Gau-168088.EOu"
         message file     "/mlatom/home/huangyh/projects/delta_learning/paper/revision1/Starting_from_ub3lyp_d4/da/b3lyp/b3lyp/ts/irc/r_calcall/Gau-168088.EMs"
         fchk file        "/mlatom/home/huangyh/projects/delta_learning/paper/revision1/Starting_from_ub3lyp_d4/da/b3lyp/b3lyp/ts/irc/r_calcall/Gau-168088.EFC"
         mat. el file     "/mlatom/home/huangyh/projects/delta_learning/paper/revision1/Starting_from_ub3lyp_d4/da/b3lyp/b3lyp/ts/irc/r_calcall/Gau-168088.EUF"
 Recovered energy= -234.575424600     dipole=      0.368500000000      0.025200000000      0.112000000000
 Energy=    -234.575425     NIter=   0.
 Dipole moment=       0.368500       0.025200       0.112000
 Leave Link  402 at Mon May 26 07:29:58 2025, MaxMem=   104857600 cpu:               0.1 elap:              30.2
 (Enter /mlatom/software/Gaussian/g16-avx2/l601.exe)
 Leave Link  601 at Mon May 26 07:29:59 2025, MaxMem=   104857600 cpu:               0.1 elap:               0.1
 (Enter /mlatom/software/Gaussian/g16-avx2/l716.exe)
 Dipole        = 3.68500000D-01 2.52000000D-02 1.12000000D-01
 Full mass-weighted force constant matrix:
 Low frequencies ---   -2.1768   -0.1672   -0.1326    0.1410    1.5817    5.1710
 Low frequencies ---   17.8094   28.0225   34.0228
 Diagonal vibrational polarizability:
        7.4547663       1.3795245       3.4138506
 Harmonic frequencies (cm**-1), IR intensities (KM/Mole), Raman scattering
 activities (A**4/AMU), depolarization ratios for plane and unpolarized
 incident light, reduced masses (AMU), force constants (mDyne/A),
 and normal coordinates:
                      1                      2                      3
                      A                      A                      A
 Frequencies --     17.4318                28.0214                34.0192
 Red. masses --      2.1504                 3.2335                 2.5484
 Frc consts  --      0.0004                 0.0015                 0.0017
 IR Inten    --      0.0049                 0.0094                 0.0096
  Atom  AN      X      Y      Z        X      Y      Z        X      Y      Z
     1   6     0.20   0.04  -0.06    -0.14  -0.09  -0.02    -0.03  -0.03  -0.08
     2   6    -0.10   0.01   0.02    -0.17  -0.06   0.01    -0.04   0.02  -0.04
     3   1     0.43   0.07  -0.17     0.04  -0.14  -0.08    -0.02  -0.08  -0.06
     4   1     0.23   0.04  -0.00    -0.30  -0.08   0.01    -0.03  -0.04  -0.14
     5   1    -0.32  -0.02   0.12    -0.37  -0.02   0.07    -0.05   0.07  -0.06
     6   6    -0.17   0.01  -0.04     0.03  -0.08  -0.02    -0.04   0.03   0.03
     7   6     0.06   0.03  -0.02     0.29  -0.04  -0.02     0.00  -0.02   0.08
     8   1    -0.44  -0.01  -0.09    -0.04  -0.12  -0.05    -0.09   0.08   0.05
     9   1    -0.01   0.03  -0.06     0.43  -0.06  -0.05    -0.00  -0.02   0.13
    10   1     0.33   0.04   0.04     0.38   0.01   0.01     0.05  -0.07   0.08
    11   6     0.04  -0.04   0.03    -0.08   0.13   0.01     0.06  -0.04   0.24
    12   6    -0.05  -0.05   0.06     0.06   0.13   0.04     0.04   0.05  -0.23
    13   1     0.06  -0.01   0.21    -0.13   0.02   0.03     0.07  -0.06   0.44
    14   1     0.08  -0.05  -0.16    -0.14   0.23  -0.04     0.07  -0.10   0.42
    15   1    -0.07  -0.07  -0.11     0.12   0.24   0.02     0.03   0.07  -0.42
    16   1    -0.09  -0.03   0.26     0.13   0.03   0.09     0.03   0.11  -0.42
                      4                      5                      6
                      A                      A                      A
 Frequencies --     52.9152                59.5635               121.6439
 Red. masses --      4.6886                 2.0879                 1.0636
 Frc consts  --      0.0077                 0.0044                 0.0093
 IR Inten    --      0.2505                 0.0099                 0.3462
  Atom  AN      X      Y      Z        X      Y      Z        X      Y      Z
     1   6    -0.16   0.01   0.02    -0.10  -0.01   0.02     0.04   0.00  -0.02
     2   6    -0.17  -0.01   0.01    -0.04   0.01   0.01    -0.02   0.00  -0.01
     3   1    -0.15   0.02   0.01    -0.09  -0.03   0.02     0.08   0.01  -0.04
     4   1    -0.16   0.01   0.04    -0.16  -0.00   0.02     0.04   0.00  -0.01
     5   1    -0.18  -0.03   0.03    -0.05   0.03   0.00    -0.07  -0.00   0.01
     6   6    -0.17  -0.01  -0.01     0.05   0.00   0.01    -0.02   0.00  -0.01
     7   6    -0.17   0.00  -0.03     0.08   0.01   0.00     0.02   0.00  -0.01
     8   1    -0.18  -0.03  -0.02     0.09  -0.01   0.01    -0.05  -0.00  -0.02
     9   1    -0.17   0.00  -0.04     0.14   0.01  -0.00     0.02   0.00  -0.02
    10   1    -0.16   0.02  -0.02     0.04   0.03  -0.00     0.05   0.01  -0.00
    11   6     0.32   0.02  -0.07     0.20   0.01  -0.03    -0.01  -0.01   0.02
    12   6     0.33  -0.01   0.07    -0.19  -0.02  -0.00    -0.00  -0.01   0.03
    13   1     0.31   0.03  -0.16     0.35   0.29  -0.03     0.00   0.09  -0.47
    14   1     0.31   0.04  -0.09     0.38  -0.25  -0.05    -0.02  -0.10   0.50
    15   1     0.33  -0.01   0.16    -0.34  -0.31  -0.01    -0.01  -0.10   0.51
    16   1     0.34  -0.02   0.09    -0.38   0.24   0.02     0.01   0.09  -0.46
                      7                      8                      9
                      A                      A                      A
 Frequencies --    157.6885               275.5580               480.8036
 Red. masses --      1.5248                 2.5165                 1.3444
 Frc consts  --      0.0223                 0.1126                 0.1831
 IR Inten    --      0.1703                 0.0089                11.0168
  Atom  AN      X      Y      Z        X      Y      Z        X      Y      Z
     1   6     0.07  -0.01  -0.04    -0.02   0.23   0.06     0.03   0.04  -0.03
     2   6    -0.12   0.01   0.04    -0.03   0.00  -0.09    -0.08  -0.06  -0.05
     3   1     0.43  -0.03  -0.19     0.03   0.47  -0.08    -0.29   0.24   0.02
     4   1    -0.12   0.01   0.04    -0.03   0.24   0.36     0.49  -0.01  -0.02
     5   1    -0.45   0.06   0.14    -0.07  -0.11  -0.01     0.27  -0.08  -0.17
     6   6     0.13  -0.01   0.02     0.01  -0.01  -0.10    -0.07  -0.05   0.07
     7   6    -0.08   0.00  -0.02     0.03  -0.23   0.08     0.04   0.04   0.02
     8   1     0.48  -0.04   0.06     0.06   0.11  -0.04     0.30  -0.06   0.12
     9   1     0.12  -0.01   0.03     0.10  -0.19   0.37     0.48  -0.01  -0.07
    10   1    -0.47   0.00  -0.10    -0.04  -0.48  -0.01    -0.29   0.23   0.01
    11   6     0.00  -0.00   0.01     0.00   0.00   0.00    -0.00   0.00  -0.00
    12   6     0.00   0.00  -0.01    -0.00   0.00   0.00     0.00   0.00  -0.00
    13   1    -0.00  -0.01   0.04     0.00   0.00  -0.00    -0.00  -0.00   0.01
    14   1     0.00   0.00  -0.01     0.00  -0.00   0.00    -0.00   0.00  -0.00
    15   1     0.00   0.01  -0.03    -0.00  -0.00   0.00    -0.00  -0.00  -0.00
    16   1     0.00  -0.00   0.00    -0.00   0.00  -0.00    -0.00  -0.00   0.01
                     10                     11                     12
                      A                      A                      A
 Frequencies --    614.0100               758.4356               840.8765
 Red. masses --      1.7443                 1.6644                 1.0422
 Frc consts  --      0.3875                 0.5641                 0.4342
 IR Inten    --      5.5550                 2.6334                 3.7534
  Atom  AN      X      Y      Z        X      Y      Z        X      Y      Z
     1   6    -0.03   0.05  -0.04    -0.00  -0.02   0.02    -0.00   0.00  -0.00
     2   6     0.04  -0.10  -0.14     0.16  -0.02  -0.05     0.00   0.00   0.00
     3   1     0.15   0.33  -0.26     0.29  -0.12  -0.06     0.00  -0.00   0.00
     4   1    -0.24   0.08   0.39    -0.56   0.04   0.16    -0.00   0.00  -0.01
     5   1    -0.21   0.03  -0.11    -0.10  -0.06   0.08     0.00   0.00  -0.00
     6   6     0.06  -0.08   0.14    -0.17   0.02  -0.02    -0.00  -0.00   0.00
     7   6    -0.02   0.05   0.04     0.01   0.02   0.02     0.00  -0.00  -0.00
     8   1    -0.18   0.04   0.14     0.12   0.07   0.05     0.00  -0.00   0.00
     9   1    -0.31   0.02  -0.34     0.59  -0.02   0.05    -0.00  -0.00  -0.00
    10   1     0.19   0.36   0.18    -0.30   0.12  -0.02    -0.00   0.00  -0.00
    11   6    -0.00  -0.00   0.00    -0.00  -0.00   0.00    -0.04  -0.00  -0.00
    12   6    -0.00   0.00   0.00     0.00   0.00  -0.00    -0.04  -0.00  -0.00
    13   1     0.00   0.00  -0.00     0.00   0.00   0.00     0.21   0.45   0.10
    14   1     0.00  -0.00   0.00     0.00  -0.00  -0.00     0.26  -0.41  -0.08
    15   1     0.00   0.00   0.00    -0.00  -0.00   0.00     0.21   0.44   0.10
    16   1     0.00  -0.00  -0.01    -0.00   0.00   0.00     0.27  -0.42  -0.08
                     13                     14                     15
                      A                      A                      A
 Frequencies --    891.5892               935.5096               936.9952
 Red. masses --      2.0779                 1.3914                 1.3614
 Frc consts  --      0.9732                 0.7174                 0.7042
 IR Inten    --      0.3901                11.2198                75.3010
  Atom  AN      X      Y      Z        X      Y      Z        X      Y      Z
     1   6    -0.01   0.14  -0.03    -0.14   0.00   0.06    -0.08   0.01   0.03
     2   6     0.03   0.16   0.04     0.05  -0.01  -0.02     0.02   0.00  -0.01
     3   1     0.11  -0.28   0.11     0.58  -0.05  -0.24     0.30  -0.03  -0.12
     4   1    -0.16   0.15  -0.53     0.56  -0.08  -0.17     0.32  -0.03  -0.12
     5   1     0.09   0.12   0.05    -0.03  -0.01   0.01    -0.02   0.01   0.01
     6   6    -0.01  -0.15   0.07    -0.04   0.01  -0.01     0.05  -0.01   0.01
     7   6     0.01  -0.14  -0.02     0.08   0.01   0.02    -0.15   0.00  -0.03
     8   1    -0.08  -0.12   0.08     0.02   0.01  -0.00    -0.05   0.00  -0.00
     9   1     0.05  -0.22  -0.52    -0.31   0.04  -0.03     0.60  -0.04   0.09
    10   1    -0.10   0.29   0.09    -0.34   0.01  -0.07     0.59  -0.02   0.13
    11   6     0.00  -0.00   0.00     0.00  -0.00   0.01    -0.00  -0.00   0.00
    12   6     0.00   0.00  -0.00    -0.00   0.00  -0.00     0.00  -0.00   0.00
    13   1    -0.00  -0.01  -0.00    -0.00   0.00  -0.04     0.00   0.01  -0.02
    14   1    -0.00   0.01   0.00     0.00   0.01  -0.04     0.00   0.00  -0.02
    15   1    -0.00  -0.01   0.00    -0.00  -0.00   0.01     0.00   0.01  -0.02
    16   1    -0.01   0.01   0.00     0.00  -0.00   0.00     0.00   0.00  -0.02
                     16                     17                     18
                      A                      A                      A
 Frequencies --    962.8590               982.4755              1026.0074
 Red. masses --      1.5096                 1.1593                 1.1118
 Frc consts  --      0.8246                 0.6593                 0.6896
 IR Inten    --      0.0341                67.4453                 0.9445
  Atom  AN      X      Y      Z        X      Y      Z        X      Y      Z
     1   6    -0.01   0.00   0.00    -0.01  -0.00   0.00    -0.00  -0.02  -0.01
     2   6     0.00  -0.00  -0.00     0.00  -0.00  -0.00    -0.06   0.03   0.03
     3   1     0.03  -0.00  -0.01     0.02  -0.00  -0.01     0.28   0.06  -0.17
     4   1     0.03  -0.00  -0.01     0.03  -0.00  -0.01    -0.17   0.00   0.17
     5   1    -0.00   0.00   0.00    -0.01   0.00   0.00     0.55   0.07  -0.23
     6   6    -0.00   0.00  -0.00    -0.00   0.00  -0.00     0.06  -0.02   0.02
     7   6     0.00   0.00   0.00    -0.00  -0.00  -0.00    -0.00   0.02  -0.01
     8   1    -0.00  -0.00  -0.00     0.01   0.00   0.00    -0.54  -0.09  -0.10
     9   1    -0.01   0.00  -0.00     0.01  -0.00  -0.00     0.18   0.02   0.13
    10   1    -0.02   0.00  -0.00     0.02   0.00   0.01    -0.28  -0.08  -0.10
    11   6     0.00   0.03  -0.15     0.00   0.02  -0.08    -0.00   0.00  -0.00
    12   6    -0.00  -0.03   0.15     0.00   0.02  -0.08     0.00   0.00  -0.00
    13   1    -0.01  -0.10   0.52    -0.01  -0.10   0.47    -0.00  -0.00   0.00
    14   1    -0.01  -0.09   0.45    -0.01  -0.10   0.49     0.00  -0.00   0.01
    15   1     0.01   0.09  -0.44    -0.01  -0.10   0.50    -0.00  -0.00   0.01
    16   1     0.01   0.10  -0.51    -0.01  -0.10   0.49     0.00  -0.00   0.01
                     19                     20                     21
                      A                      A                      A
 Frequencies --   1037.0424              1076.1654              1078.2590
 Red. masses --      1.0858                 1.4595                 1.0120
 Frc consts  --      0.6880                 0.9959                 0.6932
 IR Inten    --     29.9664                 0.0441                 0.1120
  Atom  AN      X      Y      Z        X      Y      Z        X      Y      Z
     1   6     0.00   0.01  -0.00     0.03   0.02   0.06    -0.00  -0.00  -0.01
     2   6    -0.05   0.00   0.01    -0.08  -0.09  -0.05     0.01   0.01   0.00
     3   1     0.32  -0.06  -0.11     0.12  -0.31   0.18    -0.02   0.03  -0.01
     4   1    -0.22   0.03   0.06    -0.09   0.03  -0.21     0.00  -0.00   0.02
     5   1     0.51  -0.08  -0.16     0.19  -0.49   0.08    -0.02   0.04  -0.01
     6   6    -0.06   0.00  -0.00     0.06   0.08  -0.07    -0.00  -0.01   0.01
     7   6     0.00   0.01   0.00    -0.01  -0.02   0.06     0.00   0.00  -0.01
     8   1     0.57  -0.06   0.08    -0.17   0.50   0.05     0.01  -0.04  -0.01
     9   1    -0.24   0.02  -0.02     0.04  -0.06  -0.22     0.00   0.00   0.02
    10   1     0.36  -0.04   0.06    -0.08   0.33   0.16     0.01  -0.03  -0.01
    11   6     0.00  -0.00  -0.00    -0.00   0.00   0.00     0.00  -0.00   0.01
    12   6     0.00   0.00   0.00    -0.00   0.00  -0.00     0.00   0.00  -0.01
    13   1    -0.00  -0.01   0.00    -0.00  -0.01   0.06    -0.01  -0.09   0.46
    14   1    -0.00   0.00  -0.00     0.00   0.01  -0.06     0.01   0.10  -0.51
    15   1    -0.00  -0.00   0.00    -0.00  -0.01   0.07    -0.01  -0.10   0.51
    16   1    -0.00   0.00  -0.01     0.00   0.01  -0.06     0.01   0.09  -0.46
                     22                     23                     24
                      A                      A                      A
 Frequencies --   1115.1475              1252.8227              1324.0238
 Red. masses --      1.5879                 1.5167                 1.2804
 Frc consts  --      1.1634                 1.4026                 1.3224
 IR Inten    --      5.4356                 0.6044                 0.3294
  Atom  AN      X      Y      Z        X      Y      Z        X      Y      Z
     1   6     0.01   0.12   0.01    -0.00   0.00   0.00     0.03   0.00   0.08
     2   6    -0.00  -0.09  -0.07    -0.00  -0.00  -0.00    -0.03  -0.02  -0.05
     3   1     0.04  -0.29   0.19     0.00   0.00  -0.00     0.06  -0.25   0.21
     4   1    -0.18   0.14  -0.45     0.00  -0.00  -0.00     0.02  -0.00   0.05
     5   1    -0.05  -0.30   0.08     0.00  -0.00   0.00    -0.07   0.50  -0.34
     6   6     0.01  -0.08   0.08     0.00  -0.00   0.00    -0.02  -0.02   0.06
     7   6     0.01   0.12  -0.02     0.00   0.00  -0.00     0.01  -0.01  -0.09
     8   1    -0.07  -0.30  -0.03     0.00  -0.00   0.00    -0.01   0.54   0.28
     9   1    -0.09   0.20   0.46    -0.00   0.00   0.00     0.01  -0.01  -0.05
    10   1     0.01  -0.31  -0.15    -0.00  -0.00  -0.00     0.02  -0.28  -0.18
    11   6     0.00   0.00  -0.00    -0.15  -0.01  -0.01    -0.00   0.00  -0.00
    12   6    -0.00   0.00  -0.00     0.15   0.01   0.01     0.00  -0.00  -0.00
    13   1    -0.00  -0.00   0.00     0.12   0.47   0.10     0.00   0.00   0.00
    14   1     0.00  -0.00   0.00     0.16  -0.44  -0.09    -0.00   0.00   0.00
    15   1    -0.00  -0.00   0.00    -0.11  -0.46  -0.09    -0.00  -0.00  -0.00
    16   1     0.00  -0.00   0.00    -0.18   0.45   0.09     0.00  -0.00   0.00
                     25                     26                     27
                      A                      A                      A
 Frequencies --   1358.7336              1396.2157              1458.3174
 Red. masses --      1.2932                 1.2274                 1.1613
 Frc consts  --      1.4067                 1.4097                 1.4552
 IR Inten    --      0.2774                 1.2119                 1.2822
  Atom  AN      X      Y      Z        X      Y      Z        X      Y      Z
     1   6    -0.03  -0.02  -0.07     0.00   0.00   0.00     0.01  -0.01   0.02
     2   6     0.02   0.04   0.07    -0.00  -0.00  -0.00     0.01  -0.05   0.06
     3   1    -0.05   0.27  -0.22    -0.00  -0.00   0.00    -0.02   0.39  -0.18
     4   1    -0.01  -0.01  -0.04    -0.00  -0.00  -0.00    -0.16   0.02  -0.45
     5   1     0.09  -0.48   0.35    -0.00   0.01  -0.01    -0.00   0.26  -0.11
     6   6    -0.01  -0.03   0.07     0.00   0.00  -0.00    -0.00  -0.06  -0.05
     7   6     0.01   0.00  -0.08    -0.00  -0.00   0.00     0.00  -0.01  -0.03
     8   1    -0.03   0.52   0.30    -0.00  -0.00  -0.00     0.01   0.27   0.07
     9   1     0.01   0.00  -0.04     0.00   0.00   0.00    -0.08   0.08   0.47
    10   1     0.02  -0.30  -0.18    -0.00   0.01   0.00     0.00   0.41   0.13
    11   6     0.00  -0.00  -0.00     0.01  -0.10  -0.02    -0.00   0.00   0.00
    12   6    -0.00   0.00   0.00    -0.01   0.10   0.02     0.00   0.00  -0.00
    13   1    -0.00  -0.01  -0.00    -0.17  -0.45  -0.10    -0.00  -0.00  -0.00
    14   1     0.00  -0.00  -0.00     0.22  -0.44  -0.08     0.00  -0.00  -0.00
    15   1     0.00   0.01   0.00     0.17   0.46   0.10    -0.00  -0.01  -0.00
    16   1    -0.00   0.01   0.00    -0.22   0.43   0.08     0.01  -0.01  -0.00
                     28                     29                     30
                      A                      A                      A
 Frequencies --   1485.8070              1492.1093              1693.0226
 Red. masses --      1.2745                 1.1119                 4.6908
 Frc consts  --      1.6578                 1.4586                 7.9217
 IR Inten    --      6.9071                 5.7723                 2.3320
  Atom  AN      X      Y      Z        X      Y      Z        X      Y      Z
     1   6    -0.01  -0.00  -0.03    -0.00  -0.00   0.00    -0.06   0.16  -0.20
     2   6    -0.01   0.10  -0.03    -0.00   0.00  -0.00     0.05  -0.25   0.18
     3   1     0.01  -0.38   0.16     0.00   0.00  -0.00     0.02  -0.42   0.03
     4   1     0.20  -0.03   0.50    -0.00  -0.00  -0.00     0.09   0.17   0.27
     5   1     0.01  -0.15   0.11     0.00  -0.00   0.00     0.05   0.18  -0.04
     6   6     0.00  -0.10  -0.02     0.00  -0.00  -0.00    -0.02   0.27   0.16
     7   6     0.01  -0.00  -0.03     0.00  -0.00  -0.00     0.03  -0.19  -0.19
     8   1     0.01   0.16   0.09    -0.00   0.00   0.00    -0.06  -0.19  -0.00
     9   1    -0.10   0.10   0.51    -0.00   0.00   0.02    -0.03  -0.13   0.31
    10   1     0.01   0.39   0.11    -0.00   0.01   0.00    -0.02   0.43  -0.03
    11   6    -0.00   0.00   0.00     0.01  -0.07  -0.01    -0.00   0.01   0.00
    12   6     0.00   0.00   0.00     0.00  -0.07  -0.01     0.00  -0.01  -0.00
    13   1    -0.00  -0.01  -0.00     0.25   0.41   0.09    -0.01  -0.01  -0.00
    14   1     0.01  -0.01  -0.00    -0.31   0.39   0.07     0.01  -0.01   0.00
    15   1    -0.00  -0.01  -0.00     0.26   0.42   0.09     0.01   0.01   0.00
    16   1     0.00  -0.00  -0.00    -0.31   0.38   0.07    -0.02   0.01   0.00
                     31                     32                     33
                      A                      A                      A
 Frequencies --   1717.2224              1717.8389              3143.1016
 Red. masses --      3.6487                 3.1244                 1.0843
 Frc consts  --      6.3392                 5.4322                 6.3112
 IR Inten    --      1.2518                 1.4703                10.8030
  Atom  AN      X      Y      Z        X      Y      Z        X      Y      Z
     1   6    -0.06   0.13  -0.19     0.01  -0.02   0.02    -0.00  -0.01   0.00
     2   6     0.05  -0.14   0.21    -0.01   0.02  -0.03     0.02   0.03   0.05
     3   1    -0.04  -0.34   0.02     0.01   0.04  -0.00    -0.01  -0.02  -0.03
     4   1     0.14   0.14   0.26    -0.02  -0.02  -0.04     0.02   0.13   0.00
     5   1     0.03   0.38  -0.06    -0.00  -0.06   0.01    -0.24  -0.34  -0.59
     6   6     0.01  -0.16  -0.19    -0.00   0.03   0.03     0.01   0.02  -0.05
     7   6    -0.02   0.15   0.17     0.00  -0.03  -0.03    -0.00  -0.01   0.00
     8   1     0.03   0.38   0.00    -0.01  -0.06   0.00    -0.10  -0.24   0.61
     9   1     0.08   0.10  -0.30    -0.01  -0.02   0.05     0.01   0.11  -0.02
    10   1    -0.04  -0.33   0.04     0.01   0.06  -0.01    -0.01  -0.01   0.02
    11   6     0.00  -0.06  -0.01     0.02  -0.30  -0.06     0.00  -0.00  -0.00
    12   6    -0.00   0.05   0.01    -0.02   0.30   0.06     0.00  -0.00  -0.00
    13   1     0.07   0.05   0.01     0.36   0.25   0.06    -0.00   0.00   0.00
    14   1    -0.08   0.05   0.01    -0.39   0.21   0.03     0.00   0.00   0.00
    15   1    -0.06  -0.04  -0.01    -0.36  -0.26  -0.06    -0.00   0.00   0.00
    16   1     0.07  -0.03  -0.00     0.39  -0.21  -0.03     0.00   0.00   0.00
                     34                     35                     36
                      A                      A                      A
 Frequencies --   3149.7259              3155.6501              3164.7446
 Red. masses --      1.0479                 1.0782                 1.0734
 Frc consts  --      6.1249                 6.3260                 6.3344
 IR Inten    --     17.3413                31.6812                 4.2871
  Atom  AN      X      Y      Z        X      Y      Z        X      Y      Z
     1   6     0.00  -0.00   0.00    -0.00   0.01  -0.01     0.00  -0.00   0.00
     2   6     0.00   0.00   0.00    -0.02  -0.02  -0.04    -0.00   0.00  -0.00
     3   1    -0.00  -0.00  -0.01     0.07   0.08   0.15    -0.02  -0.02  -0.04
     4   1     0.00   0.01   0.00    -0.03  -0.25  -0.00     0.00   0.04   0.00
     5   1    -0.00  -0.00  -0.00     0.19   0.28   0.48     0.00   0.00   0.01
     6   6    -0.00   0.00  -0.00     0.01   0.02  -0.05    -0.00   0.00   0.00
     7   6     0.00  -0.00  -0.00     0.00  -0.02  -0.01     0.00  -0.00  -0.00
     8   1    -0.00  -0.00   0.00    -0.10  -0.24   0.60     0.00   0.00  -0.01
     9   1     0.00   0.00  -0.00     0.02   0.27  -0.05     0.00   0.01  -0.00
    10   1    -0.00  -0.00   0.00    -0.04  -0.07   0.19    -0.00  -0.00   0.01
    11   6    -0.01   0.04   0.01    -0.00   0.00   0.00    -0.01   0.05   0.01
    12   6     0.00   0.04   0.01     0.00  -0.00  -0.00     0.00  -0.05  -0.01
    13   1     0.47  -0.24  -0.04     0.01  -0.00  -0.00     0.46  -0.24  -0.04
    14   1    -0.38  -0.25  -0.06    -0.01  -0.00  -0.00    -0.39  -0.26  -0.06
    15   1     0.42  -0.21  -0.03    -0.01   0.00   0.00    -0.42   0.21   0.03
    16   1    -0.44  -0.29  -0.07     0.00   0.00   0.00     0.43   0.29   0.07
                     37                     38                     39
                      A                      A                      A
 Frequencies --   3165.4932              3169.7072              3222.9709
 Red. masses --      1.0627                 1.0705                 1.1149
 Frc consts  --      6.2737                 6.3368                 6.8232
 IR Inten    --      5.6654                 0.0486                 0.1636
  Atom  AN      X      Y      Z        X      Y      Z        X      Y      Z
     1   6     0.01  -0.02   0.04    -0.01   0.02  -0.04     0.00   0.00   0.00
     2   6    -0.00   0.00  -0.01     0.01   0.01   0.03     0.00   0.00   0.00
     3   1    -0.19  -0.22  -0.42     0.19   0.22   0.42    -0.00  -0.00  -0.00
     4   1     0.05   0.44   0.01    -0.05  -0.42  -0.00    -0.00  -0.00  -0.00
     5   1     0.02   0.03   0.06    -0.10  -0.14  -0.25    -0.00  -0.00  -0.00
     6   6    -0.00   0.00   0.01    -0.00  -0.01   0.03    -0.00   0.00  -0.00
     7   6     0.01  -0.03  -0.04     0.01  -0.02  -0.04    -0.00   0.00   0.00
     8   1     0.02   0.04  -0.10     0.04   0.11  -0.28    -0.00  -0.00   0.00
     9   1     0.04   0.45  -0.08     0.03   0.37  -0.06    -0.00  -0.00   0.00
    10   1    -0.11  -0.17   0.51    -0.10  -0.15   0.44     0.00   0.00  -0.00
    11   6     0.00  -0.00  -0.00    -0.00   0.00   0.00     0.07   0.01   0.00
    12   6    -0.00   0.00   0.00    -0.00  -0.00  -0.00    -0.07  -0.00  -0.00
    13   1    -0.03   0.02   0.00     0.02  -0.01  -0.00    -0.40   0.22   0.03
    14   1     0.02   0.01   0.00    -0.01  -0.01  -0.00    -0.43  -0.30  -0.07
    15   1     0.02  -0.01  -0.00    -0.01   0.01   0.00     0.47  -0.25  -0.04
    16   1    -0.02  -0.01  -0.00     0.01   0.01   0.00     0.38   0.26   0.06
                     40                     41                     42
                      A                      A                      A
 Frequencies --   3245.9018              3247.9006              3248.6176
 Red. masses --      1.1164                 1.1171                 1.1172
 Frc consts  --      6.9300                 6.9433                 6.9464
 IR Inten    --     22.0173                18.3583                12.9469
  Atom  AN      X      Y      Z        X      Y      Z        X      Y      Z
     1   6    -0.02  -0.06  -0.03     0.01   0.04   0.02    -0.02  -0.05  -0.02
     2   6    -0.00  -0.00  -0.01     0.00   0.00   0.00    -0.00  -0.00  -0.00
     3   1     0.16   0.17   0.35    -0.13  -0.14  -0.28     0.14   0.15   0.31
     4   1     0.05   0.49  -0.01    -0.04  -0.37   0.00     0.04   0.41  -0.00
     5   1     0.02   0.03   0.05    -0.02  -0.02  -0.04     0.02   0.03   0.05
     6   6    -0.00  -0.00   0.01    -0.00  -0.00   0.01     0.00   0.00  -0.00
     7   6    -0.01  -0.06   0.04    -0.01  -0.04   0.03     0.01   0.03  -0.02
     8   1     0.01   0.03  -0.07     0.01   0.02  -0.05    -0.01  -0.01   0.04
     9   1     0.05   0.55  -0.08     0.03   0.39  -0.06    -0.02  -0.29   0.04
    10   1     0.10   0.14  -0.45     0.07   0.10  -0.33    -0.05  -0.08   0.24
    11   6    -0.01  -0.00  -0.00     0.05   0.00   0.00     0.05   0.00   0.00
    12   6    -0.01  -0.00  -0.00     0.05   0.00   0.00     0.05   0.00   0.00
    13   1     0.04  -0.02  -0.00    -0.28   0.15   0.02    -0.30   0.16   0.03
    14   1     0.04   0.03   0.01    -0.29  -0.20  -0.05    -0.31  -0.22  -0.05
    15   1     0.05  -0.03  -0.00    -0.31   0.17   0.03    -0.33   0.18   0.03
    16   1     0.04   0.03   0.01    -0.26  -0.18  -0.04    -0.28  -0.19  -0.05

 -------------------
 - Thermochemistry -
 -------------------
 Temperature   298.150 Kelvin.  Pressure   1.00000 Atm.
 Atom     1 has atomic number  6 and mass  12.00000
 Atom     2 has atomic number  6 and mass  12.00000
 Atom     3 has atomic number  1 and mass   1.00783
 Atom     4 has atomic number  1 and mass   1.00783
 Atom     5 has atomic number  1 and mass   1.00783
 Atom     6 has atomic number  6 and mass  12.00000
 Atom     7 has atomic number  6 and mass  12.00000
 Atom     8 has atomic number  1 and mass   1.00783
 Atom     9 has atomic number  1 and mass   1.00783
 Atom    10 has atomic number  1 and mass   1.00783
 Atom    11 has atomic number  6 and mass  12.00000
 Atom    12 has atomic number  6 and mass  12.00000
 Atom    13 has atomic number  1 and mass   1.00783
 Atom    14 has atomic number  1 and mass   1.00783
 Atom    15 has atomic number  1 and mass   1.00783
 Atom    16 has atomic number  1 and mass   1.00783
 Molecular mass:    82.07825 amu.
 Principal axes and moments of inertia in atomic units:
                           1         2         3
     Eigenvalues --   456.751941213.607521505.12883
           X            1.00000  -0.00019  -0.00163
           Y            0.00020   0.99998   0.00676
           Z            0.00163  -0.00676   0.99998
 This molecule is an asymmetric top.
 Rotational symmetry number  1.
 Warning -- assumption of classical behavior for rotation
           may cause significant error
 Rotational temperatures (Kelvin)      0.18963     0.07137     0.05755
 Rotational constants (GHZ):           3.95125     1.48709     1.19906
 Zero-point vibrational energy     360631.9 (Joules/Mol)
                                   86.19309 (Kcal/Mol)
 Warning -- explicit consideration of  10 degrees of freedom as
           vibrations may cause significant error
 Vibrational temperatures:     25.08    40.32    48.95    76.13    85.70
          (Kelvin)            175.02   226.88   396.47   691.77   883.42
                             1091.22  1209.83  1282.80  1345.99  1348.13
                             1385.34  1413.56  1476.20  1492.07  1548.36
                             1551.37  1604.45  1802.53  1904.97  1954.91
                             2008.84  2098.19  2137.74  2146.81  2435.88
                             2470.70  2471.59  4522.22  4531.75  4540.28
                             4553.36  4554.44  4560.50  4637.14  4670.13
                             4673.00  4674.04
 
 Zero-point correction=                           0.137357 (Hartree/Particle)
 Thermal correction to Energy=                    0.147252
 Thermal correction to Enthalpy=                  0.148196
 Thermal correction to Gibbs Free Energy=         0.098381
 Sum of electronic and zero-point Energies=           -234.438067
 Sum of electronic and thermal Energies=              -234.428172
 Sum of electronic and thermal Enthalpies=            -234.427228
 Sum of electronic and thermal Free Energies=         -234.477043
 
                     E (Thermal)             CV                S
                      KCal/Mol        Cal/Mol-Kelvin    Cal/Mol-Kelvin
 Total                   92.402             29.687            104.845
 Electronic               0.000              0.000              0.000
 Translational            0.889              2.981             39.129
 Rotational               0.889              2.981             28.214
 Vibrational             90.625             23.725             37.502
 Vibration     1          0.593              1.986              6.907
 Vibration     2          0.593              1.984              5.965
 Vibration     3          0.594              1.983              5.580
 Vibration     4          0.596              1.976              4.705
 Vibration     5          0.597              1.974              4.472
 Vibration     6          0.609              1.931              3.074
 Vibration     7          0.621              1.894              2.577
 Vibration     8          0.677              1.719              1.561
 Vibration     9          0.837              1.293              0.708
 Vibration    10          0.973              1.002              0.426
                       Q            Log10(Q)             Ln(Q)
 Total Bot       0.559535D-45        -45.252173       -104.196979
 Total V=0       0.846847D+18         17.927805         41.280296
 Vib (Bot)       0.585490D-58        -58.232481       -134.085242
 Vib (Bot)    1  0.118843D+02          1.074972          2.475215
 Vib (Bot)    2  0.738960D+01          0.868621          2.000073
 Vib (Bot)    3  0.608457D+01          0.784230          1.805756
 Vib (Bot)    4  0.390555D+01          0.591682          1.362397
 Vib (Bot)    5  0.346710D+01          0.539967          1.243320
 Vib (Bot)    6  0.167932D+01          0.225133          0.518388
 Vib (Bot)    7  0.128296D+01          0.108213          0.249170
 Vib (Bot)    8  0.699342D+00         -0.155310         -0.357616
 Vib (Bot)    9  0.347608D+00         -0.458911         -1.056681
 Vib (Bot)   10  0.239677D+00         -0.620374         -1.428463
 Vib (V=0)       0.886129D+05          4.947497         11.392033
 Vib (V=0)    1  0.123948D+02          1.093239          2.517275
 Vib (V=0)    2  0.790649D+01          0.897984          2.067684
 Vib (V=0)    3  0.660508D+01          0.819878          1.887838
 Vib (V=0)    4  0.443742D+01          0.647131          1.490073
 Vib (V=0)    5  0.400297D+01          0.602383          1.387037
 Vib (V=0)    6  0.225217D+01          0.352602          0.811896
 Vib (V=0)    7  0.187695D+01          0.273452          0.629647
 Vib (V=0)    8  0.135970D+01          0.133442          0.307262
 Vib (V=0)    9  0.110896D+01          0.044916          0.103422
 Vib (V=0)   10  0.105448D+01          0.023037          0.053045
 Electronic      0.100000D+01          0.000000          0.000000
 Translational   0.292278D+08          7.465796         17.190631
 Rotational      0.326973D+06          5.514512         12.697633
 
                                                 97a4dc0e-8953-46ae-99b7-2d00735b
 9a94
                                                             IR Spectrum
 
 3333333333                                                     111      111  11 1  1   11111                                        
 2222111111                                                     776      444  33 3  2   100009999 8 8  7    6     4       2   11     
 4442766554                                                     119      985  95 2  5   177328633 9 4  5    1     8       7   5265321
 9863055603                                                     873      268  69 4  3   586762376 2 1  8    4     1       6   8203487
 
 XXXX XXXXX                                                     XXX      XXX  XX X  X   XX XXX XX X X  X    X     X           XX X   
 XXX  X XXX                                                              XX                X X XX                 X                  
 XXX    XXX                                                                                X X XX                 X                  
  XX    XX                                                                                 X X X                                     
  XX    XX                                                                                 X X X                                     
   X    X                                                                                  X X X                                     
        X                                                                                  X X X                                     
        X                                                                                  X X X                                     
                                                                                             X X                                     
                                                                                             X X                                     
                                                                                             X X                                     
                                                                                             X X                                     
                                                                                             X X                                     
                                                                                             X X                                     
                                                                                             X X                                     
                                                                                             X X                                     
                                                                                             X X                                     
                                                                                             X X                                     
                                                                                               X                                     
                                                                                               X                                     
 
 ***** Axes restored to original set *****
 -------------------------------------------------------------------
 Center     Atomic                   Forces (Hartrees/Bohr)
 Number     Number              X              Y              Z
 -------------------------------------------------------------------
      1        6           0.000001673    0.000004324   -0.000007631
      2        6          -0.000000933    0.000002133    0.000000046
      3        1          -0.000002877   -0.000000981    0.000007105
      4        1           0.000000227    0.000000787   -0.000000112
      5        1          -0.000000048    0.000000513   -0.000000178
      6        6           0.000001088   -0.000000832    0.000003269
      7        6          -0.000000950   -0.000007080   -0.000006922
      8        1           0.000000746   -0.000000634    0.000000014
      9        1          -0.000000924   -0.000001053   -0.000000135
     10        1           0.000001538    0.000002322    0.000005413
     11        6           0.000001937   -0.000017214   -0.000003120
     12        6           0.000007501    0.000005289    0.000000632
     13        1           0.000001382    0.000009603    0.000001393
     14        1           0.000001185   -0.000001158   -0.000000302
     15        1           0.000000503   -0.000000524   -0.000000552
     16        1          -0.000012047    0.000004506    0.000001080
 -------------------------------------------------------------------
 Cartesian Forces:  Max     0.000017214 RMS     0.000004468
 Z-matrix is all fixed cartesians, so copy forces.
 Leave Link  716 at Mon May 26 07:29:59 2025, MaxMem=   104857600 cpu:               0.1 elap:               0.6
 (Enter /mlatom/software/Gaussian/g16-avx2/l103.exe)

 GradGradGradGradGradGradGradGradGradGradGradGradGradGradGradGradGradGrad
 Berny optimization.
 Search for a local minimum.
 Step number   1 out of a maximum of    2
 All quantities printed in internal units (Hartrees-Bohrs-Radians)
 Second derivative matrix not updated -- analytic derivatives used.
 ITU=  0
     Eigenvalues ---    0.00002   0.00010   0.00011   0.00029   0.00051
     Eigenvalues ---    0.00066   0.00143   0.00704   0.01382   0.02874
     Eigenvalues ---    0.03139   0.03378   0.04431   0.05271   0.06060
     Eigenvalues ---    0.07502   0.07597   0.07846   0.07972   0.09604
     Eigenvalues ---    0.11568   0.13224   0.13840   0.14511   0.16086
     Eigenvalues ---    0.17326   0.17762   0.22858   0.24822   0.31486
     Eigenvalues ---    0.40005   0.51111   0.53492   0.70323   0.83035
     Eigenvalues ---    0.83724   0.91665   0.98328   0.99971   1.40307
     Eigenvalues ---    1.45710   1.51651
 Angle between quadratic step and forces=  88.04 degrees.
 Linear search not attempted -- first point.
 B after Tr=     0.000025   -0.000002   -0.000008
         Rot=    1.000000   -0.000004   -0.000007    0.000001 Ang=  -0.00 deg.
 Variable       Old X    -DE/DX   Delta X   Delta X   Delta X     New X
                                 (Linear)    (Quad)   (Total)
    X1        2.25437   0.00000   0.00000  -0.00058  -0.00054   2.25383
    Y1       -2.90070   0.00000   0.00000  -0.00008  -0.00009  -2.90079
    Z1        1.11027  -0.00001   0.00000  -0.00050  -0.00056   1.10971
    X2        2.88142  -0.00000   0.00000   0.00058   0.00059   2.88201
    Y2       -1.51872   0.00000   0.00000  -0.00000  -0.00000  -1.51872
    Z2       -0.91651   0.00000   0.00000  -0.00009  -0.00014  -0.91665
    X3        1.48308  -0.00000   0.00000  -0.00164  -0.00158   1.48150
    Y3       -2.04322  -0.00000   0.00000  -0.00023  -0.00025  -2.04348
    Z3        2.81030   0.00001   0.00000  -0.00089  -0.00093   2.80938
    X4        2.47650   0.00000   0.00000  -0.00048  -0.00045   2.47605
    Y4       -4.94121   0.00000   0.00000  -0.00007  -0.00008  -4.94129
    Z4        1.12422  -0.00000   0.00000  -0.00046  -0.00054   1.12368
    X5        3.55058  -0.00000   0.00000   0.00163   0.00161   3.55220
    Y5       -2.49349   0.00000   0.00000   0.00005   0.00007  -2.49343
    Z5       -2.60427  -0.00000   0.00000   0.00029   0.00022  -2.60405
    X6        2.71363   0.00000   0.00000   0.00061   0.00062   2.71426
    Y6        1.24807  -0.00000   0.00000  -0.00003  -0.00003   1.24804
    Z6       -1.11649   0.00000   0.00000  -0.00014  -0.00017  -1.11666
    X7        2.96465  -0.00000   0.00000  -0.00068  -0.00064   2.96401
    Y7        2.89028  -0.00001   0.00000  -0.00003  -0.00004   2.89024
    Z7        0.79449  -0.00001   0.00000   0.00002  -0.00000   0.79449
    X8        2.40183   0.00000   0.00000   0.00180   0.00179   2.40362
    Y8        1.98670  -0.00000   0.00000  -0.00002  -0.00000   1.98670
    Z8       -3.01460   0.00000   0.00000  -0.00033  -0.00035  -3.01495
    X9        2.79020  -0.00000   0.00000  -0.00062  -0.00058   2.78962
    Y9        4.91364  -0.00000   0.00000  -0.00005  -0.00006   4.91359
    Z9        0.49681  -0.00000   0.00000  -0.00013  -0.00013   0.49668
   X10        3.38159   0.00000   0.00000  -0.00185  -0.00179   3.37980
   Y10        2.27034   0.00000   0.00000   0.00007   0.00004   2.27038
   Z10        2.70827   0.00001   0.00000   0.00032   0.00029   2.70856
   X11       -5.14000   0.00000   0.00000   0.00018   0.00020  -5.13980
   Y11       -1.10640  -0.00002   0.00000  -0.00002  -0.00001  -1.10642
   Z11       -0.29356  -0.00000   0.00000   0.00066   0.00071  -0.29285
   X12       -4.98273   0.00001   0.00000   0.00016   0.00019  -4.98253
   Y12        1.35573   0.00001   0.00000   0.00013   0.00014   1.35586
   Z12        0.19954   0.00000   0.00000  -0.00001   0.00006   0.19961
   X13       -6.94911   0.00000   0.00000   0.00013   0.00015  -6.94896
   Y13       -2.07113   0.00001   0.00000  -0.00006  -0.00005  -2.07117
   Z13       -0.44334   0.00000   0.00000   0.00173   0.00180  -0.44154
   X14       -3.45888   0.00000   0.00000   0.00012   0.00014  -3.45874
   Y14       -2.25634  -0.00000   0.00000   0.00000   0.00001  -2.25632
   Z14       -0.56447  -0.00000   0.00000   0.00016   0.00018  -0.56429
   X15       -3.16766   0.00000   0.00000   0.00012   0.00015  -3.16751
   Y15        2.30780  -0.00000   0.00000   0.00038   0.00038   2.30818
   Z15        0.34554  -0.00000   0.00000  -0.00104  -0.00099   0.34455
   X16       -6.65620  -0.00001   0.00000   0.00009   0.00013  -6.65607
   Y16        2.51738   0.00000   0.00000  -0.00002  -0.00002   2.51736
   Z16        0.47510   0.00000   0.00000   0.00046   0.00056   0.47566
         Item               Value     Threshold  Converged?
 Maximum Force            0.000017     0.000450     YES
 RMS     Force            0.000004     0.000300     YES
 Maximum Displacement     0.001802     0.001800     NO 
 RMS     Displacement     0.000657     0.001200     YES
 Predicted change in Energy=-2.306512D-09
 GradGradGradGradGradGradGradGradGradGradGradGradGradGradGradGradGradGrad

 Leave Link  103 at Mon May 26 07:29:59 2025, MaxMem=   104857600 cpu:               0.0 elap:               0.1
 (Enter /mlatom/software/Gaussian/g16-avx2/l9999.exe)
 1\1\GINC-B004\Freq\RExternal='/mlatom/software/miniconda3/bin/python /
 mlatom/software/mlatom_xacs/ml\ZDO\C6H10\UNKNOWN\26-May-2025\0\\#p Fre
 q external='/mlatom/software/miniconda3/bin/python /mlatom/software/ml
 atom_xacs/mlatom/interfaces/gaussian_interface.py model_predict_kwargs
 '\\97a4dc0e-8953-46ae-99b7-2d00735b9a94\\0,1\C,1.1929619437,-1.5349868
 814,0.5875270127\C,1.5247811568,-0.8036701582,-0.4849947835\H,0.784810
 8354,-1.0812259792,1.4871486939\H,1.3105065155,-2.6147773848,0.5949105
 216\H,1.8788884318,-1.3194993309,-1.3781204232\C,1.4359932054,0.660448
 61,-0.5908205932\C,1.5688233742,1.5294728369,0.4204267112\H,1.27099498
 95,1.0513148387,-1.5952578152\H,1.4765086949,2.6001887682,0.2629031023
 \H,1.7894591957,1.2014129256,1.4331551182\C,-2.719970435,-0.5854842663
 ,-0.1553477173\C,-2.6367455336,0.7174209505,0.1055939038\H,-3.67730845
 12,-1.0959940282,-0.2346054183\H,-1.8303589774,-1.1940013398,-0.298706
 1919\H,-1.6762530918,1.2212368875,0.1828536958\H,-3.522310412,1.332138
 094,0.2514115152\\Version=ES64L-G16RevA.03\HF=-234.5754246\RMSD=0.000e
 +00\RMSF=4.468e-06\ZeroPoint=0.1373574\Thermal=0.1472522\Dipole=0.3685
 ,-0.0252,-0.112\DipoleDeriv=-0.2820869,-0.0593487,-0.0875379,-0.109931
 3,-0.0393427,0.032854,-0.0937811,0.0432629,-0.0280903,-0.0777416,-0.05
 5046,-0.129042,-0.0121345,0.1676757,0.0364028,-0.120648,0.1768442,0.05
 5044,0.1177221,0.0283543,0.0630932,0.0436842,0.0090024,-0.0684077,0.08
 34389,-0.0321088,-0.0227101,0.1261177,0.0362761,0.0279997,0.0235859,-0
 .0975264,0.0166,0.0343357,0.0072668,0.0630768,0.0957893,0.0409133,0.05
 99808,0.0322013,-0.0243711,-0.0588455,0.0712172,-0.0631789,-0.0713907,
 -0.1346583,-0.0188488,0.098847,-0.0050966,0.1435852,-0.0455093,0.00112
 44,-0.1859939,0.1223184,-0.3055896,-0.0570451,0.0472063,-0.0169516,-0.
 0597385,-0.0428831,0.1251385,-0.051251,0.0186824,0.1199732,0.02674,-0.
 0261282,0.0095306,-0.0099497,0.0514562,-0.030524,0.0578647,-0.1043637,
 0.1421337,0.0395985,-0.0214676,0.0139716,-0.0954268,0.0106542,-0.02353
 02,0.0205773,0.051289,0.1299627,0.0227127,-0.0354984,0.022756,0.026369
 1,0.0669978,-0.0478594,0.0252003,-0.060444,0.1335266,0.0420926,-0.0045
 084,-0.0044242,-0.0148233,0.0467936,-0.0237994,0.0425719,-0.2469732,0.
 1288342,-0.0547515,-0.0166631,-0.0064121,-0.0085573,0.0520834,-0.01049
 36,0.0536256,-0.2455001,-0.096912,-0.0837352,-0.0123904,-0.0571564,0.0
 13769,-0.0222663,-0.0056232,-0.0206626,0.1247978,-0.0023757,0.0637774,
 0.0231915,0.0695164,-0.0077075,-0.0226683,0.0346345,-0.020497,0.111419
 2,-0.0168357,-0.0608978,-0.0083174,-0.0686853,0.0012403,-0.0234186,-0.
 0130773,-0.0254986,0.1104824,-0.0778596,0.0892084,0.0212352,0.065546,-
 0.0041983,-0.0298433,0.0194471,-0.0280231,0.1223621\PG=C01 [X(C6H10)]\
 NImag=0\\0.19367548,-0.02476802,0.70582722,-0.22114352,-0.10659966,0.7
 0037524,-0.08467448,-0.05405580,0.10869765,0.20120174,-0.05148941,-0.2
 3261185,0.17798873,-0.00419979,0.63549579,0.10915617,0.19007646,-0.384
 34132,-0.19381114,-0.10002901,0.73337672,-0.07903351,0.04712790,0.0964
 1111,0.00183802,0.00753265,0.00680598,0.07093704,0.04915594,-0.1114541
 0,-0.09949147,-0.00675563,0.01262557,0.01465731,-0.05127427,0.10835117
 ,0.09454978,-0.09657479,-0.24393710,0.01034791,-0.01136412,-0.01893901
 ,-0.10632968,0.10564728,0.26007102,-0.03907707,0.03605316,0.00846158,0
 .00474589,-0.01069276,-0.00020921,0.00145071,0.01004883,-0.00070707,0.
 03054574,0.03394994,-0.33988454,-0.00039017,0.00285258,-0.01348288,-0.
 00264545,0.00038859,-0.00802211,0.00164466,-0.03659680,0.35955535,0.00
 902859,-0.00438173,-0.05536223,-0.00207671,0.02772096,0.00288239,0.002
 36417,-0.02387614,0.00314060,-0.01064331,-0.00195642,0.05042631,0.0016
 3943,0.00310598,0.00985588,-0.06943519,0.04672591,0.07338898,0.0105233
 6,0.00008151,0.00490396,-0.00668430,-0.00100101,-0.00304853,0.06034130
 ,-0.00690290,0.01111604,0.01673200,0.04575153,-0.11887577,-0.10563694,
 -0.00034832,-0.00115843,0.00337782,-0.00062732,0.00108145,-0.00024265,
 -0.04716632,0.12652829,0.01031296,-0.01406437,-0.01984474,0.07573348,-
 0.10280424,-0.23661888,0.00399503,0.00338600,-0.00124221,-0.00253277,-
 0.00004695,0.00035893,-0.08732786,0.11121490,0.25175647,0.00680426,-0.
 00848698,-0.00108611,-0.06659227,0.01389530,0.00563897,-0.00632439,-0.
 00074463,-0.00303756,0.00989412,0.00048492,0.00488729,0.00269165,0.009
 43635,-0.00099994,0.14734143,-0.00204971,-0.02997073,0.02133493,0.0167
 3797,-0.23854535,-0.00295643,-0.00260131,0.00024634,-0.00320657,0.0021
 3326,0.00127919,0.00131447,-0.00261779,-0.01408287,0.00187400,-0.00507
 375,0.66349517,-0.00164457,0.02544246,0.00663246,0.00043601,0.02364928
 ,-0.10678364,-0.00377199,-0.00027650,-0.00036614,0.00655762,0.00329945
 ,-0.00127620,0.00105458,-0.02792689,0.00353548,0.08143309,0.11174596,0
 .75967939,-0.00002063,-0.00054930,0.00061403,0.00636483,0.00155762,0.0
 0090381,0.00003760,-0.00037797,-0.00031098,-0.00022029,0.00008264,-0.0
 0032764,0.00100092,0.00137528,0.00088905,-0.05530495,-0.02633092,-0.04
 543434,0.12741716,0.00050688,0.00212839,-0.00742249,-0.00393933,-0.035
 51688,-0.02107267,-0.00062001,-0.00017087,0.00023632,0.00103833,0.0003
 1764,0.00047207,0.00128007,-0.00483247,0.00092132,-0.02547230,-0.28436
 145,-0.21309039,-0.01775901,0.73378486,0.00022554,0.00649465,-0.004659
 64,0.00104979,-0.01576594,0.01274890,0.00171976,0.00028976,0.00074109,
 -0.00108984,0.00004549,-0.00079797,0.00060193,0.00287033,0.00111077,-0
 .04419241,-0.20068529,-0.36173051,0.11513890,0.10166055,0.73806639,0.0
 0138335,0.00121525,-0.00075412,0.00272802,-0.00245645,-0.00042992,0.00
 029519,0.00009771,-0.00001982,-0.00012760,-0.00022649,-0.00021504,-0.0
 0016805,-0.00045796,-0.00042536,-0.04654246,0.01999171,-0.03696614,0.0
 0462026,-0.00035591,-0.00532631,0.03351360,0.00166450,-0.00520532,-0.0
 0175174,0.00353321,-0.01026880,0.03103164,0.00037782,0.00028447,0.0002
 0682,-0.00158121,-0.00092021,0.00067895,-0.00026904,0.00093571,-0.0007
 0650,0.01827756,-0.09316289,0.09135685,-0.00403824,0.01017379,-0.02201
 420,-0.01748581,0.09911485,-0.00106180,0.00015378,0.00112131,0.0002938
 3,-0.00058260,-0.00019945,-0.00022144,-0.00019473,0.00002191,0.0000572
 2,0.00003323,-0.00008568,0.00026303,0.00062247,0.00082370,-0.03905759,
 0.08888288,-0.28566585,-0.00472126,0.01010834,-0.02181902,0.04494682,-
 0.09550889,0.30629242,-0.00045688,0.00124555,0.00099511,0.01167868,0.0
 0171776,-0.00432989,0.00012557,0.00022623,0.00001038,-0.00054989,-0.00
 006067,-0.00038492,-0.00015744,-0.00145919,0.00012466,0.00415755,-0.00
 521256,0.00135778,-0.03500198,0.02648383,-0.00841697,-0.00751807,-0.00
 036267,0.00103541,0.02583714,0.00012658,0.00022373,-0.00015972,0.00045
 489,0.00063117,-0.00352967,0.00003005,0.00014206,0.00003035,-0.0000118
 2,-0.00007705,0.00006308,-0.00018273,-0.00100348,0.00005106,0.00212328
 ,-0.01650589,0.00575078,0.02547199,-0.33403138,0.04364450,-0.00053685,
 0.00110176,-0.00017010,-0.02772810,0.35438357,0.00035045,-0.00036029,-
 0.00046556,-0.00243707,-0.00134863,-0.00244756,-0.00043705,-0.00013511
 ,0.00023044,0.00019560,0.00000644,0.00043873,0.00021964,-0.00084629,0.
 00006045,0.00146214,-0.02669890,0.00649717,-0.00868010,0.04799577,-0.0
 6527432,0.00160222,0.00009527,0.00116164,0.00981577,-0.04514095,0.0603
 7697,0.00029863,-0.00086276,-0.00167475,-0.00741864,-0.00264886,0.0027
 4323,0.00008263,-0.00051543,0.00049348,0.00005714,0.00008276,0.0004060
 4,0.00024586,0.00043662,0.00020670,0.00433143,0.00501253,-0.00327177,-
 0.04836790,0.01889900,-0.05955194,0.01177415,-0.00016850,-0.00148397,0
 .00194157,0.00027609,-0.00210925,0.03703861,-0.00027488,-0.00023317,-0
 .00024094,-0.00038871,0.00065799,0.00010373,-0.00058600,-0.00078741,0.
 00002004,0.00018118,0.00016286,0.00018413,0.00005492,0.00027825,0.0001
 7113,-0.00444676,0.01166696,-0.01997458,0.02059750,-0.08754055,0.08346
 375,0.00020184,-0.00205420,-0.00332414,0.00521949,-0.00483293,0.026407
 40,-0.02054035,0.08268787,0.00028727,-0.00024841,0.00050994,0.00178601
 ,0.00264521,0.00036015,-0.00048517,0.00001196,0.00035512,-0.00006764,-
 0.00000443,0.00028590,0.00004791,-0.00016409,0.00006709,-0.00510728,0.
 00836238,-0.02050606,-0.05807722,0.08016402,-0.29830415,-0.00248683,-0
 .00341051,-0.00160712,-0.00019932,-0.00053920,-0.00059683,0.06431970,-
 0.08681635,0.31944081,0.00013012,0.00031849,-0.00009155,0.00011029,-0.
 00022239,0.00007199,-0.00006080,-0.00008552,-0.00007724,-0.00017406,0.
 00009443,-0.00006035,-0.00009502,0.00004703,0.00001974,-0.00013565,-0.
 00020346,0.00005839,-0.00015469,0.00024241,0.00013393,0.00000505,0.000
 01249,-0.00005257,0.00009095,0.00010598,-0.00000176,0.00003038,-0.0000
 0218,-0.00000456,0.64262960,-0.00049535,-0.00025126,0.00034619,-0.0002
 5225,0.00032822,-0.00046784,-0.00003085,0.00003116,0.00005979,0.000044
 07,-0.00000734,0.00001491,0.00003220,-0.00000149,-0.00000912,0.0001139
 6,0.00017538,-0.00009648,-0.00007586,-0.00010516,0.00006000,0.00000175
 ,-0.00002737,0.00002057,0.00001790,-0.00001230,-0.00001924,-0.00001943
 ,0.00001381,-0.00000192,0.01640755,0.84693826,-0.00033552,-0.00026826,
 0.00008994,-0.00001366,0.00022987,-0.00005435,0.00014045,0.00012329,0.
 00015698,0.00005752,0.00000028,0.00001198,-0.00003457,0.00000361,0.000
 05050,-0.00003057,0.00004483,-0.00016665,-0.00000410,-0.00006440,0.000
 04050,-0.00003673,-0.00007311,0.00006419,0.00001457,-0.00001930,-0.000
 01730,0.00002610,0.00000120,0.00003312,-0.00958037,0.14845163,0.138215
 79,-0.00024225,-0.00031042,0.00006760,-0.00016974,0.00023246,0.0000181
 8,0.00007603,0.00009367,0.00001940,0.00012490,-0.00008324,0.00002826,0
 .00008936,-0.00006635,-0.00002487,0.00007433,0.00027371,0.00000650,0.0
 0021552,-0.00023521,-0.00025645,-0.00006617,-0.00002566,0.00009445,-0.
 00017024,-0.00015864,0.00001604,-0.00008619,-0.00000881,0.00000304,-0.
 11718566,-0.02904020,-0.00414903,0.64267625,0.00003598,-0.00005868,0.0
 0002080,-0.00011520,0.00018090,0.00005800,0.00008683,0.00004610,-0.000
 00482,-0.00001000,-0.00001178,-0.00000921,0.00003224,-0.00005163,-0.00
 000787,0.00035117,0.00030365,0.00033351,0.00040611,-0.00025925,-0.0004
 2877,-0.00002543,-0.00000446,0.00000133,-0.00005159,-0.00001132,0.0000
 1785,-0.00007263,0.00000349,-0.00000360,-0.02940649,-0.56487192,-0.104
 08677,0.01752601,0.84677716,0.00004209,-0.00010777,-0.00015469,0.00000
 775,0.00009880,0.00006947,0.00006072,0.00001958,0.00005208,-0.00000737
 ,0.00000364,0.00003377,-0.00001876,-0.00000855,0.00003697,0.00013776,0
 .00011579,0.00002635,0.00001737,-0.00008850,0.00003556,-0.00011080,-0.
 00004552,0.00012785,-0.00001694,-0.00002567,-0.00002512,0.00009179,-0.
 00001915,0.00004671,-0.00414931,-0.10405687,-0.06650672,-0.00984930,0.
 14849439,0.13829629,-0.00032267,-0.00020740,0.00008414,-0.00008227,0.0
 0013234,-0.00021747,0.00006773,0.00002537,0.00009939,0.00001698,0.0000
 1874,0.00002422,0.00001674,-0.00000062,0.00001949,-0.00000631,0.000076
 14,-0.00008158,-0.00005426,-0.00001783,0.00005286,0.00002704,-0.000000
 70,-0.00000245,0.00001556,-0.00001402,-0.00000805,0.00001589,0.0000064
 9,0.00000061,-0.28038761,-0.11374141,-0.01690889,0.00211631,0.00066636
 ,0.00021025,0.29193204,0.00019504,0.00015493,-0.00007118,0.00010604,-0
 .00014050,0.00009665,-0.00003236,-0.00003458,-0.00003981,-0.00002412,0
 .00000965,-0.00001125,-0.00002269,0.00002174,0.00000138,-0.00008071,-0
 .00013105,-0.00000784,-0.00011185,0.00010222,0.00008426,0.00001031,0.0
 0000697,-0.00001869,0.00004045,0.00003725,-0.00000241,0.00002083,-0.00
 000045,-0.00000247,-0.10998603,-0.11505764,-0.01317381,-0.03077569,-0.
 01120132,-0.00251373,0.12533629,0.11959061,0.00006539,0.00003862,-0.00
 002026,0.00000145,-0.00003597,0.00003090,-0.00000447,-0.00001291,0.000
 00678,-0.00001589,0.00000695,0.00000235,0.00000699,0.00000209,-0.00000
 578,-0.00002560,-0.00002591,0.00001270,-0.00002170,0.00001433,-0.00000
 358,0.00000637,0.00000600,-0.00001905,0.00000936,0.00001165,0.00000470
 ,-0.00001062,0.00000426,-0.00000797,-0.01611666,-0.01307729,-0.0383375
 1,-0.00614746,-0.00331358,0.00453027,0.01866235,0.01612201,0.02699808,
 -0.00001735,0.00025411,-0.00035140,-0.00030173,-0.00018743,0.00031341,
 -0.00005424,0.00002750,-0.00000567,-0.00000169,-0.00000727,-0.00001974
 ,-0.00000305,-0.00000903,-0.00000883,0.00000967,-0.00020954,0.00009298
 ,-0.00005318,0.00006821,-0.00002248,0.00000628,0.00004336,-0.00002603,
 -0.00000925,0.00001307,0.00000763,0.00000589,-0.00001164,-0.00001301,-
 0.25303079,0.12924250,0.03125400,0.00606558,-0.00280633,-0.00061741,-0
 .01638655,0.01460182,0.00337944,0.26106199,0.00020445,0.00020027,-0.00
 010057,0.00014565,-0.00009595,0.00026379,-0.00006212,-0.00003339,-0.00
 013531,0.00011437,-0.00007161,0.00000340,-0.00002103,0.00001500,-0.000
 02756,-0.00003626,-0.00019804,0.00006001,0.00003631,-0.00004206,-0.000
 03687,-0.00004221,-0.00003043,0.00000766,0.00001622,0.00003075,0.00000
 002,-0.00001803,-0.00000415,0.00000005,0.12460023,-0.14153355,-0.02403
 287,0.02836830,-0.01439868,-0.00461965,-0.01232352,0.01000859,0.001846
 85,-0.13980202,0.14939224,0.00015814,0.00027886,-0.00005569,-0.0000030
 4,-0.00021929,-0.00003012,-0.00020669,-0.00014614,-0.00024294,-0.00005
 475,-0.00000101,-0.00002248,0.00007427,-0.00000539,-0.00006110,0.00005
 680,-0.00002431,0.00012684,-0.00002281,0.00006719,-0.00002392,0.000031
 75,0.00007559,-0.00004116,-0.00001031,0.00001767,0.00000586,-0.0000200
 8,-0.00000952,-0.00002452,0.03019741,-0.02404634,-0.04226999,0.0057328
 0,-0.00389077,0.00415575,-0.00197698,0.00115174,0.00259066,-0.03378122
 ,0.02829413,0.03169886,-0.00006241,-0.00008505,-0.00004110,-0.00005184
 ,0.00021749,0.00000604,0.00002052,0.00001968,0.00000617,0.00001075,-0.
 00000842,0.00002486,0.00000366,-0.00003705,0.,-0.00017297,0.00022847,0
 .00034669,-0.00021553,-0.00032168,-0.00029608,0.00001871,-0.00000055,-
 0.00003398,-0.00002918,0.00001792,0.00000578,0.00000955,-0.00000571,-0
 .00000011,0.00253469,0.00061127,0.00018561,-0.28356191,-0.11453647,-0.
 01687152,0.00163424,0.00045577,0.00040450,0.00127652,-0.00005215,-0.00
 024710,0.29486435,-0.00001115,-0.00009104,-0.00014725,0.00005964,-0.00
 025821,-0.00000504,0.00004503,-0.00003922,0.00011844,-0.00002548,0.000
 04960,0.00003731,-0.00000291,0.00001120,0.00004025,-0.00023539,-0.0000
 8885,-0.00022733,-0.00015591,0.00023106,0.00022568,0.00005728,0.000043
 75,-0.00001420,-0.00011235,-0.00009765,0.00002800,0.00010158,-0.000013
 27,0.00000881,-0.03056271,-0.01122706,-0.00251989,-0.10993584,-0.11439
 329,-0.01281989,0.00020823,-0.00444116,-0.00355748,0.00015762,0.001028
 77,0.00196555,0.12499062,0.11936561,-0.00003732,0.00008089,0.00013737,
 -0.00001705,-0.00014807,-0.00006309,-0.00004109,0.00002163,-0.00004641
 ,0.00001491,-0.00000201,-0.00003654,0.00000844,0.00000752,-0.00002227,
 -0.00006185,-0.00007732,-0.00004475,0.00002072,0.00008583,-0.00013359,
 0.00018256,0.00005661,-0.00016544,-0.00000597,0.00000893,0.00004092,-0
 .00015627,0.00002126,-0.00004705,-0.00609115,-0.00334060,0.00456246,-0
 .01588319,-0.01266400,-0.03893343,0.00032136,-0.00356742,0.01247796,-0
 .00019216,0.00196540,-0.00830364,0.01837844,0.01573926,0.02799455,-0.0
 0002403,0.00000532,-0.00004456,0.00005868,-0.00011444,-0.00004912,0.00
 001854,-0.00002299,0.00005755,-0.00001135,0.00002929,0.00001279,-0.000
 00924,0.00002826,0.00001850,-0.00022545,-0.00015474,-0.00017325,-0.000
 26288,0.00020255,0.00022979,0.00005070,0.00002344,-0.00002965,0.000045
 92,0.00001229,-0.00000199,0.00004102,0.00000362,-0.00000343,0.00569318
 ,-0.00281586,-0.00058482,-0.24995611,0.12791943,0.03107367,0.00139716,
 0.00026688,-0.00019345,0.00143190,-0.00112820,0.00007181,-0.01627917,0
 .01542175,0.00355962,0.25803113,0.00015211,0.00011012,-0.00004746,0.00
 006521,-0.00012345,0.00005546,-0.00003365,-0.00002676,-0.00001610,-0.0
 0004367,0.00002177,-0.00001187,-0.00002930,0.00001845,0.00000657,-0.00
 010576,-0.00011958,-0.00003828,-0.00012839,0.00012211,0.00009211,0.000
 01126,0.00001238,-0.00001691,0.00001969,0.00002171,0.00000107,0.000016
 60,-0.00000509,-0.00000145,0.02864017,-0.01439175,-0.00461630,0.124145
 91,-0.14204897,-0.02442690,-0.00016448,0.00107473,0.00197039,-0.001374
 95,-0.00426777,-0.00350795,-0.01149414,0.00991975,0.00181208,-0.139676
 60,0.14968235,0.00004636,0.00003957,-0.00002501,0.00000479,-0.00003498
 ,0.00000888,0.00000034,-0.00002380,-0.00000220,-0.00001660,0.00000630,
 0.00000013,0.00000412,0.00000006,-0.00000539,-0.00001715,-0.00000051,0
 .00002940,0.00001625,0.00001271,0.00000349,0.00000135,0.00000274,-0.00
 001025,0.00000128,0.00000658,0.00000982,-0.00000838,0.00000778,-0.0000
 0513,0.00574407,-0.00383739,0.00412707,0.03032402,-0.02451649,-0.04179
 111,-0.00027924,0.00195258,-0.00826026,-0.00000951,-0.00348848,0.01249
 757,-0.00186823,0.00112780,0.00258296,-0.03394348,0.02874555,0.0308400
 4\\-0.00000167,-0.00000432,0.00000763,0.00000093,-0.00000213,-0.000000
 05,0.00000288,0.00000098,-0.00000710,-0.00000023,-0.00000079,0.0000001
 1,0.00000005,-0.00000051,0.00000018,-0.00000109,0.00000083,-0.00000327
 ,0.00000095,0.00000708,0.00000692,-0.00000075,0.00000063,-0.00000001,0
 .00000092,0.00000105,0.00000014,-0.00000154,-0.00000232,-0.00000541,-0
 .00000194,0.00001721,0.00000312,-0.00000750,-0.00000529,-0.00000063,-0
 .00000138,-0.00000960,-0.00000139,-0.00000119,0.00000116,0.00000030,-0
 .00000050,0.00000052,0.00000055,0.00001205,-0.00000451,-0.00000108\\\@


 THE FIRST MORNING OF CREATION WROTE WHAT THE LAST DAWN OF
 RECKONING SHALL READ. -- OMAR KHAYYAM
 Job cpu time:       0 days  0 hours  0 minutes  0.8 seconds.
 Elapsed time:       0 days  0 hours  0 minutes 32.0 seconds.
 File lengths (MBytes):  RWF=     22 Int=      0 D2E=      0 Chk=      2 Scr=      2
 Normal termination of Gaussian 16 at Mon May 26 07:30:00 2025.
