 Entering Gaussian System, Link 0=/mlatom/software/Gaussian/g16-avx2/g16
 Input=gaussian.com
 Output=gaussian.log
 Initial command:
 /mlatom/software/Gaussian/g16-avx2/l1.exe "/mlatom/home/huangyh/projects/delta_learning/paper/revision1/Starting_from_ub3lyp_d4/da/b3lyp/ADL/p/Gau-69816.inp" -scrdir="/mlatom/home/huangyh/projects/delta_learning/paper/revision1/Starting_from_ub3lyp_d4/da/b3lyp/ADL/p/"
 Entering Link 1 = /mlatom/software/Gaussian/g16-avx2/l1.exe PID=     69817.
  
 Copyright (c) 1988,1990,1992,1993,1995,1998,2003,2009,2016,
            Gaussian, Inc.  All Rights Reserved.
  
 This is part of the Gaussian(R) 16 program.  It is based on
 the Gaussian(R) 09 system (copyright 2009, Gaussian, Inc.),
 the Gaussian(R) 03 system (copyright 2003, Gaussian, Inc.),
 the Gaussian(R) 98 system (copyright 1998, Gaussian, Inc.),
 the Gaussian(R) 94 system (copyright 1995, Gaussian, Inc.),
 the Gaussian 92(TM) system (copyright 1992, Gaussian, Inc.),
 the Gaussian 90(TM) system (copyright 1990, Gaussian, Inc.),
 the Gaussian 88(TM) system (copyright 1988, Gaussian, Inc.),
 the Gaussian 86(TM) system (copyright 1986, Carnegie Mellon
 University), and the Gaussian 82(TM) system (copyright 1983,
 Carnegie Mellon University). Gaussian is a federally registered
 trademark of Gaussian, Inc.
  
 This software contains proprietary and confidential information,
 including trade secrets, belonging to Gaussian, Inc.
  
 This software is provided under written license and may be
 used, copied, transmitted, or stored only in accord with that
 written license.
  
 The following legend is applicable only to US Government
 contracts under FAR:
  
                    RESTRICTED RIGHTS LEGEND
  
 Use, reproduction and disclosure by the US Government is
 subject to restrictions as set forth in subparagraphs (a)
 and (c) of the Commercial Computer Software - Restricted
 Rights clause in FAR 52.227-19.
  
 Gaussian, Inc.
 340 Quinnipiac St., Bldg. 40, Wallingford CT 06492
  
  
 ---------------------------------------------------------------
 Warning -- This program may not be used in any manner that
 competes with the business of Gaussian, Inc. or will provide
 assistance to any competitor of Gaussian, Inc.  The licensee
 of this program is prohibited from giving any competitor of
 Gaussian, Inc. access to this program.  By using this program,
 the user acknowledges that Gaussian, Inc. is engaged in the
 business of creating and licensing software in the field of
 computational chemistry and represents and warrants to the
 licensee that it is not a competitor of Gaussian, Inc. and that
 it will not use this program in any manner prohibited above.
 ---------------------------------------------------------------
  

 Cite this work as:
 Gaussian 16, Revision A.03,
 M. J. Frisch, G. W. Trucks, H. B. Schlegel, G. E. Scuseria, 
 M. A. Robb, J. R. Cheeseman, G. Scalmani, V. Barone, 
 G. A. Petersson, H. Nakatsuji, X. Li, M. Caricato, A. V. Marenich, 
 J. Bloino, B. G. Janesko, R. Gomperts, B. Mennucci, H. P. Hratchian, 
 J. V. Ortiz, A. F. Izmaylov, J. L. Sonnenberg, D. Williams-Young, 
 F. Ding, F. Lipparini, F. Egidi, J. Goings, B. Peng, A. Petrone, 
 T. Henderson, D. Ranasinghe, V. G. Zakrzewski, J. Gao, N. Rega, 
 G. Zheng, W. Liang, M. Hada, M. Ehara, K. Toyota, R. Fukuda, 
 J. Hasegawa, M. Ishida, T. Nakajima, Y. Honda, O. Kitao, H. Nakai, 
 T. Vreven, K. Throssell, J. A. Montgomery, Jr., J. E. Peralta, 
 F. Ogliaro, M. J. Bearpark, J. J. Heyd, E. N. Brothers, K. N. Kudin, 
 V. N. Staroverov, T. A. Keith, R. Kobayashi, J. Normand, 
 K. Raghavachari, A. P. Rendell, J. C. Burant, S. S. Iyengar, 
 J. Tomasi, M. Cossi, J. M. Millam, M. Klene, C. Adamo, R. Cammi, 
 J. W. Ochterski, R. L. Martin, K. Morokuma, O. Farkas, 
 J. B. Foresman, and D. J. Fox, Gaussian, Inc., Wallingford CT, 2016.
 
 ******************************************
 Gaussian 16:  ES64L-G16RevA.03 25-Dec-2016
                26-May-2025 
 ******************************************
 %nproc=1
 Will use up to    1 processors via shared memory.
 ----------------------------------------------------------------------
 #p Freq external='/mlatom/software/miniconda3/bin/python /mlatom/softw
 are/mlatom_xacs/mlatom/interfaces/gaussian_interface.py model_predict_
 kwargs'
 ----------------------------------------------------------------------
 1/10=4,18=10,30=1,38=1/1,3;
 2/12=2,17=6,18=5,40=1/2;
 3/11=9,25=1,30=1,41=9900000,43=2,71=2,140=1/1;
 4/20=17,22=2,24=3,113=1,114=1/2;
 6/7=2,8=2,9=2,10=2/1;
 7/8=1,25=1,44=-1/16;
 1/10=4,18=10,30=1/3;
 99//99;
 Leave Link    1 at Mon May 26 08:08:42 2025, MaxMem=           0 cpu:               0.1 elap:               0.1
 (Enter /mlatom/software/Gaussian/g16-avx2/l101.exe)
 ------------------------------------
 bc750d42-3f0b-40f7-b937-d922937e5ac3
 ------------------------------------
 Symbolic Z-matrix:
 Charge =  0 Multiplicity = 1
 C                    -1.50176   0.05249   0.10712 
 C                    -0.66652   1.31208   0.04709 
 H                    -2.37614   0.17164  -0.54627 
 H                    -1.90601  -0.05848   1.12413 
 H                    -1.21274   2.2534    0.10898 
 C                     0.66652   1.31209  -0.04709 
 C                     1.50176   0.05249  -0.10712 
 H                     1.21273   2.25341  -0.10898 
 H                     2.37614   0.17165   0.54627 
 H                     1.90601  -0.05847  -1.12413 
 C                    -0.70633  -1.20202  -0.29921 
 C                     0.70634  -1.20202   0.29921 
 H                    -0.62686  -1.23558  -1.39224 
 H                    -1.24682  -2.10635   0.00843 
 H                     0.62686  -1.23557   1.39224 
 H                     1.24683  -2.10635  -0.00843 
 
 ITRead=  0  0  0  0  0  0  0  0  0  0  0  0  0  0  0  0
 MicOpt= -1 -1 -1 -1 -1 -1 -1 -1 -1 -1 -1 -1 -1 -1 -1 -1
 NAtoms=     16 NQM=       16 NQMF=       0 NMMI=      0 NMMIF=      0
                NMic=       0 NMicF=      0.
                    Isotopes and Nuclear Properties:
 (Nuclear quadrupole moments (NQMom) in fm**2, nuclear magnetic moments (NMagM)
  in nuclear magnetons)

  Atom         1           2           3           4           5           6           7           8           9          10
 IAtWgt=          12          12           1           1           1          12          12           1           1           1
 AtmWgt=  12.0000000  12.0000000   1.0078250   1.0078250   1.0078250  12.0000000  12.0000000   1.0078250   1.0078250   1.0078250
 NucSpn=           0           0           1           1           1           0           0           1           1           1
 AtZEff=  -0.0000000  -0.0000000  -0.0000000  -0.0000000  -0.0000000  -0.0000000  -0.0000000  -0.0000000  -0.0000000  -0.0000000
 NQMom=    0.0000000   0.0000000   0.0000000   0.0000000   0.0000000   0.0000000   0.0000000   0.0000000   0.0000000   0.0000000
 NMagM=    0.0000000   0.0000000   2.7928460   2.7928460   2.7928460   0.0000000   0.0000000   2.7928460   2.7928460   2.7928460
 AtZNuc=   6.0000000   6.0000000   1.0000000   1.0000000   1.0000000   6.0000000   6.0000000   1.0000000   1.0000000   1.0000000

  Atom        11          12          13          14          15          16
 IAtWgt=          12          12           1           1           1           1
 AtmWgt=  12.0000000  12.0000000   1.0078250   1.0078250   1.0078250   1.0078250
 NucSpn=           0           0           1           1           1           1
 AtZEff=  -0.0000000  -0.0000000  -0.0000000  -0.0000000  -0.0000000  -0.0000000
 NQMom=    0.0000000   0.0000000   0.0000000   0.0000000   0.0000000   0.0000000
 NMagM=    0.0000000   0.0000000   2.7928460   2.7928460   2.7928460   2.7928460
 AtZNuc=   6.0000000   6.0000000   1.0000000   1.0000000   1.0000000   1.0000000
 Leave Link  101 at Mon May 26 08:08:42 2025, MaxMem=   104857600 cpu:               0.2 elap:               0.3
 (Enter /mlatom/software/Gaussian/g16-avx2/l103.exe)

 GradGradGradGradGradGradGradGradGradGradGradGradGradGradGradGradGradGrad
 Berny optimization.
 Initialization pass.
 Trust Radius=3.00D-01 FncErr=1.00D-07 GrdErr=1.00D-07 EigMax=2.50D+02 EigMin=1.00D-04
 Number of steps in this run=      2 maximum allowed number of steps=      2.
 GradGradGradGradGradGradGradGradGradGradGradGradGradGradGradGradGradGrad

 Leave Link  103 at Mon May 26 08:08:43 2025, MaxMem=   104857600 cpu:               0.1 elap:               0.1
 (Enter /mlatom/software/Gaussian/g16-avx2/l202.exe)
                          Input orientation:                          
 ---------------------------------------------------------------------
 Center     Atomic      Atomic             Coordinates (Angstroms)
 Number     Number       Type             X           Y           Z
 ---------------------------------------------------------------------
      1          6           0       -1.501760    0.052488    0.107121
      2          6           0       -0.666524    1.312084    0.047088
      3          1           0       -2.376143    0.171640   -0.546268
      4          1           0       -1.906009   -0.058480    1.124125
      5          1           0       -1.212736    2.253404    0.108977
      6          6           0        0.666518    1.312087   -0.047087
      7          6           0        1.501760    0.052493   -0.107121
      8          1           0        1.212727    2.253409   -0.108977
      9          1           0        2.376143    0.171649    0.546267
     10          1           0        1.906009   -0.058473   -1.124126
     11          6           0       -0.706333   -1.202019   -0.299209
     12          6           0        0.706338   -1.202016    0.299210
     13          1           0       -0.626857   -1.235577   -1.392235
     14          1           0       -1.246822   -2.106352    0.008435
     15          1           0        0.626862   -1.235573    1.392235
     16          1           0        1.246831   -2.106347   -0.008434
 ---------------------------------------------------------------------
                    Distance matrix (angstroms):
                    1          2          3          4          5
     1  C    0.000000
     2  C    1.512549   0.000000
     3  H    1.098025   2.139037   0.000000
     4  H    1.100014   2.138873   1.750484   0.000000
     5  H    2.219813   1.090074   2.473177   2.618389   0.000000
     6  C    2.512329   1.336365   3.287489   3.141352   2.107613
     7  C    3.011151   2.512330   3.904507   3.625076   3.501313
     8  H    3.501312   2.107613   4.171927   4.073314   2.435236
     9  H    3.904507   3.287490   4.876254   4.327090   4.171927
    10  H    3.625075   3.141352   4.327089   4.425621   4.073314
    11  C    1.539998   2.538153   2.176291   2.184671   3.516107
    12  C    2.546836   2.875589   3.479001   2.968589   3.957141
    13  H    2.161627   2.926397   2.399150   3.058408   3.843160
    14  H    2.176079   3.467556   2.602365   2.423442   4.361048
    15  H    2.800295   3.157979   3.841365   2.805864   4.147751
    16  H    3.496952   3.917867   4.313285   3.926430   5.007063
                    6          7          8          9         10
     6  C    0.000000
     7  C    1.512550   0.000000
     8  H    1.090074   2.219814   0.000000
     9  H    2.139038   1.098025   2.473177   0.000000
    10  H    2.138874   1.100014   2.618390   1.750484   0.000000
    11  C    2.875589   2.546836   3.957140   3.479001   2.968588
    12  C    2.538153   1.539998   3.516107   2.176291   2.184671
    13  H    3.157979   2.800295   4.147751   3.841365   2.805863
    14  H    3.917866   3.496951   5.007063   4.313285   3.926430
    15  H    2.926396   2.161627   3.843159   2.399150   3.058408
    16  H    3.467556   2.176079   4.361048   2.602365   2.423442
                   11         12         13         14         15
    11  C    0.000000
    12  C    1.534192   0.000000
    13  H    1.096425   2.153955   0.000000
    14  H    1.097539   2.171914   1.761954   0.000000
    15  H    2.153955   1.096425   3.053701   2.486736   0.000000
    16  H    2.171914   1.097539   2.486736   2.493711   1.761954
                   16
    16  H    0.000000
 Stoichiometry    C6H10
 Framework group  C1[X(C6H10)]
 Deg. of freedom    42
 Full point group                 C1      NOp   1
 Largest Abelian subgroup         C1      NOp   1
 Largest concise Abelian subgroup C1      NOp   1
                         Standard orientation:                         
 ---------------------------------------------------------------------
 Center     Atomic      Atomic             Coordinates (Angstroms)
 Number     Number       Type             X           Y           Z
 ---------------------------------------------------------------------
      1          6           0        1.501760    0.052488   -0.107121
      2          6           0        0.666524    1.312084   -0.047088
      3          1           0        2.376143    0.171640    0.546268
      4          1           0        1.906009   -0.058480   -1.124125
      5          1           0        1.212736    2.253404   -0.108977
      6          6           0       -0.666518    1.312087    0.047087
      7          6           0       -1.501760    0.052493    0.107121
      8          1           0       -1.212727    2.253409    0.108977
      9          1           0       -2.376143    0.171649   -0.546267
     10          1           0       -1.906009   -0.058473    1.124126
     11          6           0        0.706333   -1.202019    0.299209
     12          6           0       -0.706338   -1.202016   -0.299210
     13          1           0        0.626857   -1.235577    1.392235
     14          1           0        1.246822   -2.106352   -0.008435
     15          1           0       -0.626862   -1.235573   -1.392235
     16          1           0       -1.246831   -2.106347    0.008434
 ---------------------------------------------------------------------
 Rotational constants (GHZ):           4.6841105           4.5158387           2.5181807
 Leave Link  202 at Mon May 26 08:08:43 2025, MaxMem=   104857600 cpu:               0.0 elap:               0.1
 (Enter /mlatom/software/Gaussian/g16-avx2/l301.exe)
 Standard basis: STO-3G (5D, 7F)
 Ernie: Thresh=  0.10000D-02 Tol=  0.10000D-05 Strict=F.
 There are    40 symmetry adapted cartesian basis functions of A   symmetry.
 There are    40 symmetry adapted basis functions of A   symmetry.
    40 basis functions,   120 primitive gaussians,    40 cartesian basis functions
    23 alpha electrons       23 beta electrons
       nuclear repulsion energy       235.7096680432 Hartrees.
 IExCor=    0 DFT=F Ex=HF Corr=None ExCW=0 ScaHFX=  1.000000
 ScaDFX=  1.000000  1.000000  1.000000  1.000000 ScalE2=  1.000000  1.000000
 IRadAn=      5 IRanWt=     -1 IRanGd=            0 ICorTp=0 IEmpDi=  4
 NAtoms=   16 NActive=   16 NUniq=   16 SFac= 1.00D+00 NAtFMM=   60 NAOKFM=F Big=F
 Integral buffers will be    131072 words long.
 Raffenetti 1 integral format.
 Two-electron integral symmetry is turned on.
 Leave Link  301 at Mon May 26 08:08:43 2025, MaxMem=   104857600 cpu:               0.1 elap:               0.2
 (Enter /mlatom/software/Gaussian/g16-avx2/l402.exe)
 External calculation of energy, first and second derivatives.
 Running external command "/mlatom/software/miniconda3/bin/python /mlatom/software/mlatom_xacs/mlatom/interfaces/gaussian_interface.py model_predict_kwargs R"
         input file       "/mlatom/home/huangyh/projects/delta_learning/paper/revision1/Starting_from_ub3lyp_d4/da/b3lyp/ADL/p/Gau-69817.EIn"
         output file      "/mlatom/home/huangyh/projects/delta_learning/paper/revision1/Starting_from_ub3lyp_d4/da/b3lyp/ADL/p/Gau-69817.EOu"
         message file     "/mlatom/home/huangyh/projects/delta_learning/paper/revision1/Starting_from_ub3lyp_d4/da/b3lyp/ADL/p/Gau-69817.EMs"
         fchk file        "/mlatom/home/huangyh/projects/delta_learning/paper/revision1/Starting_from_ub3lyp_d4/da/b3lyp/ADL/p/Gau-69817.EFC"
         mat. el file     "/mlatom/home/huangyh/projects/delta_learning/paper/revision1/Starting_from_ub3lyp_d4/da/b3lyp/ADL/p/Gau-69817.EUF"
model loaded from /mlatom/home/huangyh/projects/delta_learning/paper/revision1/Starting_from_ub3lyp_d4/da/b3lyp/ADL_main_model_ethene_butadiene.npz
 Recovered energy= -234.649964383     dipole=      0.000000000000     -0.350738074905      0.000000000000
 Energy=    -234.649964     NIter=   0.
 Dipole moment=       0.000000      -0.350738       0.000000
 Leave Link  402 at Mon May 26 08:08:59 2025, MaxMem=   104857600 cpu:               0.1 elap:              15.9
 (Enter /mlatom/software/Gaussian/g16-avx2/l601.exe)
 Leave Link  601 at Mon May 26 08:08:59 2025, MaxMem=   104857600 cpu:               0.1 elap:               0.1
 (Enter /mlatom/software/Gaussian/g16-avx2/l716.exe)
 Dipole        = 0.00000000D+00-3.50738075D-01 0.00000000D+00
 Full mass-weighted force constant matrix:
 Low frequencies ---  -99.0371  -97.7625  -93.8872   -0.0917    0.0298    4.5657
 Low frequencies ---  158.8035  247.3653  405.4198
 Diagonal vibrational polarizability:
        0.0000000       0.0000000       0.0000000
 Harmonic frequencies (cm**-1), IR intensities (KM/Mole), Raman scattering
 activities (A**4/AMU), depolarization ratios for plane and unpolarized
 incident light, reduced masses (AMU), force constants (mDyne/A),
 and normal coordinates:
                      1                      2                      3
                      A                      A                      A
 Frequencies --    158.6699               247.2949               405.4034
 Red. masses --      1.7695                 1.7361                 2.1884
 Frc consts  --      0.0262                 0.0626                 0.2119
 IR Inten    --      0.0000                 0.0000                 0.0000
  Atom  AN      X      Y      Z        X      Y      Z        X      Y      Z
     1   6     0.02   0.01   0.14    -0.02  -0.04  -0.05    -0.07  -0.01  -0.04
     2   6    -0.02  -0.00  -0.09    -0.00  -0.02  -0.06     0.01   0.04   0.21
     3   1    -0.15   0.05   0.37     0.05  -0.01  -0.15     0.15  -0.14  -0.31
     4   1     0.31   0.05   0.25    -0.15  -0.18  -0.09    -0.41   0.05  -0.18
     5   1    -0.02  -0.01  -0.26    -0.01  -0.02  -0.11     0.05   0.03   0.32
     6   6    -0.02   0.00  -0.09     0.00  -0.02   0.06    -0.01   0.04  -0.21
     7   6     0.02  -0.01   0.14     0.02  -0.04   0.05     0.07  -0.01   0.04
     8   1    -0.02   0.01  -0.26     0.01  -0.02   0.11    -0.05   0.03  -0.32
     9   1    -0.15  -0.05   0.37    -0.05  -0.01   0.15    -0.15  -0.14   0.31
    10   1     0.31  -0.05   0.25     0.15  -0.18   0.09     0.41   0.05   0.18
    11   6    -0.01  -0.04  -0.06    -0.06   0.06   0.13    -0.01  -0.03   0.02
    12   6    -0.01   0.04  -0.06     0.06   0.06  -0.13     0.01  -0.03  -0.02
    13   1    -0.04  -0.20  -0.07    -0.26   0.31   0.12    -0.02   0.00   0.02
    14   1    -0.01  -0.00  -0.18    -0.02  -0.02   0.43     0.03  -0.01   0.04
    15   1    -0.04   0.20  -0.07     0.26   0.31  -0.12     0.02   0.00  -0.02
    16   1    -0.01   0.00  -0.18     0.02  -0.02  -0.43    -0.03  -0.01  -0.04
                      4                      5                      6
                      A                      A                      A
 Frequencies --    476.5127               508.8833               684.3548
 Red. masses --      2.2466                 4.7099                 1.3615
 Frc consts  --      0.3006                 0.7186                 0.3757
 IR Inten    --      0.0000                 0.0000                 0.0000
  Atom  AN      X      Y      Z        X      Y      Z        X      Y      Z
     1   6     0.04   0.07  -0.00    -0.27   0.01   0.05     0.02  -0.05  -0.04
     2   6     0.09   0.07   0.01    -0.02   0.20  -0.12    -0.07  -0.06  -0.04
     3   1    -0.08  -0.05   0.18    -0.26   0.06   0.03    -0.16   0.09   0.18
     4   1     0.23   0.08   0.07    -0.21  -0.07   0.08     0.29  -0.06   0.07
     5   1     0.04   0.10   0.12     0.13   0.10  -0.24     0.01  -0.07   0.52
     6   6     0.09  -0.07   0.01     0.02   0.20   0.12    -0.07   0.06  -0.04
     7   6     0.04  -0.07  -0.00     0.27   0.01  -0.05     0.02   0.05  -0.04
     8   1     0.04  -0.10   0.12    -0.13   0.10   0.24     0.01   0.07   0.52
     9   1    -0.08   0.05   0.18     0.26   0.06  -0.03    -0.16  -0.09   0.18
    10   1     0.23  -0.08   0.07     0.21  -0.07  -0.08     0.29   0.06   0.07
    11   6    -0.12   0.14  -0.06    -0.04  -0.19   0.04     0.03  -0.03   0.00
    12   6    -0.12  -0.14  -0.06     0.04  -0.19  -0.04     0.03   0.03   0.00
    13   1    -0.29   0.38  -0.05    -0.07  -0.28   0.03    -0.01   0.13   0.01
    14   1    -0.02   0.09   0.27     0.18  -0.04  -0.03    -0.00  -0.09   0.14
    15   1    -0.29  -0.38  -0.05     0.07  -0.28  -0.03    -0.01  -0.13   0.01
    16   1    -0.02  -0.09   0.27    -0.18  -0.04   0.03    -0.00   0.09   0.14
                      7                      8                      9
                      A                      A                      A
 Frequencies --    755.8617               812.6711               854.4125
 Red. masses --      1.6271                 2.7756                 1.4697
 Frc consts  --      0.5477                 1.0800                 0.6321
 IR Inten    --      0.0000                 0.0000                 0.0000
  Atom  AN      X      Y      Z        X      Y      Z        X      Y      Z
     1   6    -0.03   0.05  -0.01    -0.15  -0.04   0.06     0.07   0.03   0.08
     2   6     0.07   0.10  -0.07    -0.02  -0.11  -0.01     0.00  -0.00  -0.03
     3   1    -0.04   0.06  -0.01    -0.10  -0.12  -0.00     0.32   0.11  -0.27
     4   1    -0.00  -0.13   0.02    -0.22  -0.13   0.04    -0.30  -0.13  -0.06
     5   1     0.03   0.15   0.44    -0.00  -0.13  -0.05    -0.06   0.03  -0.17
     6   6     0.07  -0.10  -0.07     0.02  -0.11   0.01    -0.00  -0.00   0.03
     7   6    -0.03  -0.05  -0.01     0.15  -0.04  -0.06    -0.07   0.03  -0.08
     8   1     0.03  -0.15   0.44     0.00  -0.13   0.05     0.06   0.03   0.17
     9   1    -0.04  -0.06  -0.01     0.10  -0.12   0.00    -0.32   0.11   0.27
    10   1    -0.00   0.13   0.02     0.22  -0.13  -0.04     0.30  -0.13   0.06
    11   6    -0.05  -0.00   0.06    -0.11   0.17  -0.05     0.04  -0.00   0.07
    12   6    -0.05   0.00   0.06     0.11   0.17   0.05    -0.04  -0.00  -0.07
    13   1     0.20  -0.29   0.06    -0.03  -0.18  -0.06     0.04  -0.32   0.05
    14   1    -0.07   0.10  -0.30    -0.23   0.23  -0.41     0.01   0.06  -0.19
    15   1     0.20   0.29   0.06     0.03  -0.18   0.06    -0.04  -0.32  -0.05
    16   1    -0.07  -0.10  -0.30     0.23   0.23   0.41    -0.01   0.06   0.19
                     10                     11                     12
                      A                      A                      A
 Frequencies --    898.2225               924.4027               963.5915
 Red. masses --      2.5290                 2.6365                 1.1966
 Frc consts  --      1.2022                 1.3274                 0.6546
 IR Inten    --      0.0000                 0.0000                 0.0000
  Atom  AN      X      Y      Z        X      Y      Z        X      Y      Z
     1   6     0.17   0.03  -0.03     0.11  -0.13  -0.01    -0.00  -0.01   0.01
     2   6    -0.07   0.10   0.01     0.05   0.17  -0.01     0.01   0.00   0.09
     3   1     0.21   0.07  -0.09     0.11  -0.35   0.03    -0.01  -0.05   0.03
     4   1     0.05   0.06  -0.08     0.07  -0.24  -0.01     0.02   0.09   0.00
     5   1    -0.27   0.22  -0.05     0.13   0.13  -0.01    -0.01  -0.04  -0.69
     6   6    -0.07  -0.10   0.01    -0.05   0.17   0.01    -0.01   0.00  -0.09
     7   6     0.17  -0.03  -0.03    -0.11  -0.13   0.01     0.00  -0.01  -0.01
     8   1    -0.27  -0.22  -0.05    -0.13   0.13   0.01     0.01  -0.04   0.69
     9   1     0.21  -0.07  -0.09    -0.11  -0.35  -0.03     0.01  -0.05  -0.03
    10   1     0.05  -0.06  -0.08    -0.07  -0.24   0.01    -0.02   0.09  -0.00
    11   6    -0.07  -0.13   0.03    -0.11   0.01  -0.05    -0.00   0.00  -0.02
    12   6    -0.07   0.13   0.03     0.11   0.01   0.05     0.00   0.00   0.02
    13   1    -0.15  -0.04   0.03    -0.11  -0.09  -0.05    -0.00   0.07  -0.01
    14   1    -0.32  -0.31   0.11    -0.37  -0.11  -0.15    -0.00  -0.02   0.04
    15   1    -0.15   0.04   0.03     0.11  -0.09   0.05     0.00   0.07   0.01
    16   1    -0.32   0.31   0.11     0.37  -0.11   0.15     0.00  -0.02  -0.04
                     13                     14                     15
                      A                      A                      A
 Frequencies --    971.8613              1020.8294              1089.5809
 Red. masses --      1.3603                 3.0828                 2.2018
 Frc consts  --      0.7570                 1.8928                 1.5401
 IR Inten    --      0.0000                 0.0000                 0.0000
  Atom  AN      X      Y      Z        X      Y      Z        X      Y      Z
     1   6    -0.00   0.01  -0.10     0.17   0.01   0.03     0.03   0.12  -0.05
     2   6     0.01  -0.01   0.06    -0.09  -0.15  -0.01    -0.03  -0.05   0.01
     3   1    -0.20  -0.05   0.19     0.27   0.03  -0.12     0.01   0.23  -0.03
     4   1     0.30   0.19   0.01    -0.08  -0.09  -0.06     0.02   0.23  -0.06
     5   1     0.01  -0.03  -0.25    -0.06  -0.16   0.09    -0.20   0.05  -0.00
     6   6     0.01   0.01   0.06    -0.09   0.15  -0.01     0.03  -0.05  -0.01
     7   6    -0.00  -0.01  -0.10     0.17  -0.01   0.03    -0.03   0.12   0.05
     8   1     0.01   0.03  -0.25    -0.06   0.16   0.09     0.20   0.05   0.00
     9   1    -0.20   0.05   0.19     0.27  -0.03  -0.12    -0.01   0.23   0.03
    10   1     0.30  -0.19   0.01    -0.08   0.09  -0.06    -0.02   0.23   0.06
    11   6    -0.03   0.01   0.05    -0.10   0.15   0.02    -0.16  -0.08  -0.00
    12   6    -0.03  -0.01   0.05    -0.10  -0.15   0.02     0.16  -0.08   0.00
    13   1     0.39   0.06   0.08     0.14  -0.19   0.01    -0.29  -0.19  -0.02
    14   1    -0.18  -0.01  -0.16    -0.13   0.26  -0.35    -0.37  -0.18  -0.05
    15   1     0.39  -0.06   0.08     0.14   0.19   0.01     0.29  -0.19   0.02
    16   1    -0.18   0.01  -0.16    -0.13  -0.26  -0.35     0.37  -0.18   0.05
                     16                     17                     18
                      A                      A                      A
 Frequencies --   1098.0468              1127.8358              1197.2200
 Red. masses --      1.9210                 1.6725                 1.1800
 Frc consts  --      1.3646                 1.2535                 0.9965
 IR Inten    --      0.0000                 0.0000                 0.0000
  Atom  AN      X      Y      Z        X      Y      Z        X      Y      Z
     1   6    -0.02   0.14  -0.00     0.01   0.01   0.11    -0.00  -0.01   0.06
     2   6     0.06  -0.11  -0.01    -0.01  -0.01  -0.07    -0.01   0.01  -0.06
     3   1     0.01   0.40  -0.10     0.19  -0.28  -0.09     0.10  -0.33  -0.02
     4   1    -0.05   0.35  -0.04    -0.29   0.34  -0.05    -0.16   0.41  -0.05
     5   1     0.25  -0.21   0.05    -0.02  -0.00   0.02     0.04  -0.01   0.16
     6   6     0.06   0.11  -0.01     0.01  -0.01   0.07    -0.01  -0.01  -0.06
     7   6    -0.02  -0.14  -0.00    -0.01   0.01  -0.11    -0.00   0.01   0.06
     8   1     0.25   0.21   0.05     0.02  -0.00  -0.02     0.04   0.01   0.16
     9   1     0.01  -0.40  -0.10    -0.19  -0.28   0.09     0.10   0.33  -0.02
    10   1    -0.05  -0.35  -0.04     0.29   0.34   0.05    -0.16  -0.41  -0.05
    11   6    -0.03  -0.07   0.02    -0.01  -0.02  -0.11     0.00  -0.01  -0.02
    12   6    -0.03   0.07   0.02     0.01  -0.02   0.11     0.00   0.01  -0.02
    13   1    -0.14  -0.04   0.01    -0.09   0.27  -0.09     0.27   0.23   0.02
    14   1    -0.11  -0.13   0.06     0.02  -0.11   0.20    -0.12  -0.09   0.01
    15   1    -0.14   0.04   0.01     0.09   0.27   0.09     0.27  -0.23   0.02
    16   1    -0.11   0.13   0.06    -0.02  -0.11  -0.20    -0.12   0.09   0.01
                     19                     20                     21
                      A                      A                      A
 Frequencies --   1228.5287              1266.5988              1300.9234
 Red. masses --      1.1312                 1.2934                 1.1459
 Frc consts  --      1.0059                 1.2225                 1.1426
 IR Inten    --      0.0000                 0.0000                 0.0000
  Atom  AN      X      Y      Z        X      Y      Z        X      Y      Z
     1   6     0.03   0.03  -0.03     0.01  -0.01  -0.03    -0.02   0.00   0.05
     2   6     0.01  -0.01  -0.00     0.01  -0.00  -0.03     0.01   0.01   0.01
     3   1     0.01  -0.33   0.06    -0.02  -0.29   0.06     0.03   0.32  -0.07
     4   1     0.04  -0.06  -0.02     0.03   0.52  -0.07    -0.06  -0.31   0.06
     5   1    -0.20   0.11  -0.01     0.20  -0.11   0.01     0.00   0.01  -0.03
     6   6    -0.01  -0.01   0.00    -0.01  -0.00   0.03     0.01  -0.01   0.01
     7   6    -0.03   0.03   0.03    -0.01  -0.01   0.03    -0.02  -0.00   0.05
     8   1     0.20   0.11   0.01    -0.20  -0.11  -0.01     0.00  -0.01  -0.03
     9   1    -0.01  -0.33  -0.06     0.02  -0.29  -0.06     0.03  -0.32  -0.07
    10   1    -0.04  -0.06   0.02    -0.03   0.52   0.07    -0.06   0.31   0.06
    11   6    -0.05  -0.01  -0.00    -0.01   0.01   0.11     0.01   0.02  -0.05
    12   6     0.05  -0.01   0.00     0.01   0.01  -0.11     0.01  -0.02  -0.05
    13   1    -0.16  -0.12  -0.01     0.18  -0.09   0.11     0.30   0.26  -0.03
    14   1     0.45   0.29  -0.03    -0.06   0.05  -0.13    -0.30  -0.19   0.01
    15   1     0.16  -0.12   0.01    -0.18  -0.09  -0.11     0.30  -0.26  -0.03
    16   1    -0.45   0.29   0.03     0.06   0.05   0.13    -0.30   0.19   0.01
                     22                     23                     24
                      A                      A                      A
 Frequencies --   1314.4136              1380.2166              1407.8215
 Red. masses --      1.0950                 1.4321                 1.4184
 Frc consts  --      1.1146                 1.6074                 1.6563
 IR Inten    --      0.0000                 0.0000                 0.0000
  Atom  AN      X      Y      Z        X      Y      Z        X      Y      Z
     1   6    -0.02  -0.02   0.01    -0.00  -0.09  -0.02    -0.01   0.12  -0.02
     2   6    -0.04   0.01   0.00    -0.03   0.02   0.00    -0.02  -0.02   0.00
     3   1    -0.03  -0.14   0.04    -0.08   0.12   0.04     0.03  -0.49   0.04
     4   1    -0.01   0.00   0.01    -0.02   0.30  -0.06     0.05  -0.34   0.06
     5   1    -0.52   0.28   0.00    -0.17   0.11   0.01     0.13  -0.12  -0.02
     6   6     0.04   0.01  -0.00     0.03   0.02  -0.00    -0.02   0.02   0.00
     7   6     0.02  -0.02  -0.01     0.00  -0.09   0.02    -0.01  -0.12  -0.02
     8   1     0.52   0.28  -0.00     0.17   0.11  -0.01     0.13   0.12  -0.02
     9   1     0.03  -0.14  -0.04     0.08   0.12  -0.04     0.03   0.49   0.04
    10   1     0.01   0.00  -0.01     0.02   0.30   0.06     0.05   0.34   0.06
    11   6     0.02  -0.00   0.03     0.09   0.04  -0.00     0.05  -0.00   0.01
    12   6    -0.02  -0.00  -0.03    -0.09   0.04   0.00     0.05   0.00   0.01
    13   1     0.26   0.11   0.05    -0.51  -0.24  -0.06    -0.11  -0.04  -0.01
    14   1    -0.17  -0.08  -0.04    -0.01  -0.01   0.00    -0.22  -0.16  -0.01
    15   1    -0.26   0.11  -0.05     0.51  -0.24   0.06    -0.11   0.04  -0.01
    16   1     0.17  -0.08   0.04     0.01  -0.01  -0.00    -0.22   0.16  -0.01
                     25                     26                     27
                      A                      A                      A
 Frequencies --   1411.8552              1419.3791              1498.9762
 Red. masses --      1.5316                 1.5514                 1.1135
 Frc consts  --      1.7988                 1.8415                 1.4742
 IR Inten    --      0.0000                 0.0000                 0.0000
  Atom  AN      X      Y      Z        X      Y      Z        X      Y      Z
     1   6     0.02   0.07   0.01     0.04  -0.11   0.02    -0.06  -0.00   0.01
     2   6     0.00  -0.04   0.00    -0.01   0.02   0.00     0.02  -0.03  -0.00
     3   1     0.05  -0.10  -0.01    -0.02   0.47  -0.02     0.26  -0.06  -0.38
     4   1    -0.00  -0.24   0.03    -0.09   0.23  -0.07     0.42   0.07   0.19
     5   1    -0.07   0.00  -0.01    -0.06   0.06   0.01    -0.21   0.10   0.01
     6   6     0.00   0.04   0.00     0.01   0.02  -0.00     0.02   0.03  -0.00
     7   6     0.02  -0.07   0.01    -0.04  -0.11  -0.02    -0.06   0.00   0.01
     8   1    -0.07  -0.00  -0.01     0.06   0.06  -0.01    -0.21  -0.10   0.01
     9   1     0.05   0.10  -0.01     0.02   0.47   0.02     0.26   0.06  -0.38
    10   1    -0.00   0.24   0.03     0.09   0.23   0.07     0.42  -0.07   0.19
    11   6    -0.08  -0.10  -0.02    -0.10  -0.00  -0.02    -0.00   0.01  -0.00
    12   6    -0.08   0.10  -0.02     0.10  -0.00   0.02    -0.00  -0.01  -0.00
    13   1     0.32   0.21   0.02     0.24   0.11   0.01     0.02  -0.06  -0.01
    14   1     0.46   0.17   0.11     0.26   0.21  -0.02    -0.02  -0.02   0.05
    15   1     0.32  -0.21   0.02    -0.24   0.11  -0.01     0.02   0.06  -0.01
    16   1     0.46  -0.17   0.11    -0.26   0.21   0.02    -0.02   0.02   0.05
                     28                     29                     30
                      A                      A                      A
 Frequencies --   1504.6819              1517.8940              1564.8734
 Red. masses --      1.0884                 1.3375                 1.0881
 Frc consts  --      1.4518                 1.8157                 1.5700
 IR Inten    --      0.0000                 0.0000                 0.0000
  Atom  AN      X      Y      Z        X      Y      Z        X      Y      Z
     1   6     0.05   0.02  -0.01     0.01  -0.02   0.00     0.00   0.00   0.01
     2   6    -0.01  -0.00   0.00    -0.07   0.09   0.01     0.01  -0.00   0.00
     3   1    -0.27  -0.00   0.41     0.14   0.05  -0.18     0.02   0.03  -0.03
     4   1    -0.44  -0.10  -0.19     0.18   0.02   0.07     0.02  -0.01   0.01
     5   1     0.05  -0.03  -0.01     0.55  -0.27  -0.03     0.01   0.00  -0.00
     6   6     0.01  -0.00  -0.00    -0.07  -0.09   0.01    -0.01  -0.00  -0.00
     7   6    -0.05   0.02   0.01     0.01   0.02   0.00    -0.00   0.00  -0.01
     8   1    -0.05  -0.03   0.01     0.55   0.27  -0.03    -0.01   0.00   0.00
     9   1     0.27  -0.00  -0.41     0.14  -0.05  -0.18    -0.02   0.03   0.03
    10   1     0.44  -0.10   0.19     0.18  -0.02   0.07    -0.02  -0.01  -0.01
    11   6     0.01  -0.01   0.00    -0.02   0.00  -0.00     0.02  -0.05   0.03
    12   6    -0.01  -0.01  -0.00    -0.02  -0.00  -0.00    -0.02  -0.05  -0.03
    13   1     0.02   0.03   0.01     0.07  -0.04   0.00    -0.25   0.45   0.02
    14   1    -0.03  -0.02  -0.03     0.09   0.04   0.05    -0.02   0.11  -0.47
    15   1    -0.02   0.03  -0.01     0.07   0.04   0.00     0.25   0.45  -0.02
    16   1     0.03  -0.02   0.03     0.09  -0.04   0.05     0.02   0.11   0.47
                     31                     32                     33
                      A                      A                      A
 Frequencies --   1574.4080              1745.1988              3002.5017
 Red. masses --      1.0776                 5.7645                 1.0633
 Frc consts  --      1.5737                10.3443                 5.6479
 IR Inten    --      0.0000                 0.0000                 0.0000
  Atom  AN      X      Y      Z        X      Y      Z        X      Y      Z
     1   6     0.00   0.01  -0.01    -0.05   0.01   0.00     0.05   0.00  -0.01
     2   6     0.00  -0.01  -0.00     0.46  -0.06  -0.03     0.00  -0.00  -0.00
     3   1    -0.05  -0.02   0.07    -0.13   0.18   0.09    -0.38  -0.05  -0.29
     4   1    -0.06   0.02  -0.03    -0.12   0.13  -0.05    -0.16   0.05   0.42
     5   1    -0.02   0.01   0.00    -0.20   0.38   0.02     0.02   0.03  -0.00
     6   6     0.00   0.01  -0.00    -0.46  -0.06   0.03    -0.00  -0.00   0.00
     7   6     0.00  -0.01  -0.01     0.05   0.01  -0.00    -0.05   0.00   0.01
     8   1    -0.02  -0.01   0.00     0.20   0.38  -0.02    -0.02   0.03   0.00
     9   1    -0.05   0.02   0.07     0.13   0.18  -0.09     0.38  -0.05   0.29
    10   1    -0.06  -0.02  -0.03     0.12   0.13   0.05     0.16   0.05  -0.42
    11   6    -0.02   0.04  -0.03     0.01   0.00   0.00    -0.01   0.02   0.00
    12   6    -0.02  -0.04  -0.03    -0.01   0.00  -0.00     0.01   0.02  -0.00
    13   1     0.25  -0.43  -0.01     0.02  -0.05  -0.00    -0.00   0.00   0.06
    14   1     0.00  -0.13   0.47    -0.05  -0.05   0.04     0.12  -0.20  -0.07
    15   1     0.25   0.43  -0.01    -0.02  -0.05   0.00     0.00   0.00  -0.06
    16   1     0.00   0.13   0.47     0.05  -0.05  -0.04    -0.12  -0.20   0.07
                     34                     35                     36
                      A                      A                      A
 Frequencies --   3002.7857              3018.8577              3036.1664
 Red. masses --      1.0627                 1.0723                 1.0748
 Frc consts  --      5.6454                 5.7575                 5.8373
 IR Inten    --      0.0000                 0.0000                 0.0000
  Atom  AN      X      Y      Z        X      Y      Z        X      Y      Z
     1   6     0.04   0.00  -0.01    -0.02  -0.00  -0.00     0.02   0.00  -0.00
     2   6     0.00  -0.00  -0.00     0.00   0.00   0.00    -0.00  -0.00  -0.00
     3   1    -0.37  -0.05  -0.28     0.18   0.03   0.13    -0.16  -0.02  -0.12
     4   1    -0.17   0.05   0.43     0.05  -0.02  -0.13    -0.06   0.01   0.14
     5   1     0.01   0.02  -0.00    -0.01  -0.02   0.00     0.01   0.02  -0.00
     6   6     0.00   0.00  -0.00     0.00  -0.00   0.00     0.00  -0.00   0.00
     7   6     0.04  -0.00  -0.01    -0.02   0.00  -0.00    -0.02   0.00   0.00
     8   1     0.01  -0.02  -0.00    -0.01   0.02   0.00    -0.01   0.02   0.00
     9   1    -0.37   0.05  -0.28     0.18  -0.03   0.13     0.16  -0.02   0.12
    10   1    -0.17  -0.05   0.43     0.05   0.02  -0.13     0.06   0.01  -0.14
    11   6    -0.01   0.02   0.00    -0.02   0.04   0.00     0.03  -0.05  -0.00
    12   6    -0.01  -0.02   0.00    -0.02  -0.04   0.00    -0.03  -0.05   0.00
    13   1    -0.01   0.00   0.07    -0.02  -0.00   0.18     0.02   0.00  -0.17
    14   1     0.12  -0.20  -0.08     0.30  -0.52  -0.19    -0.31   0.52   0.19
    15   1    -0.01  -0.00   0.07    -0.02   0.00   0.18    -0.02   0.00   0.17
    16   1     0.12   0.20  -0.08     0.30   0.52  -0.19     0.31   0.52  -0.19
                     37                     38                     39
                      A                      A                      A
 Frequencies --   3079.2639              3084.3442              3146.7397
 Red. masses --      1.1002                 1.1000                 1.0871
 Frc consts  --      6.1463                 6.1654                 6.3423
 IR Inten    --      0.0000                 0.0000                 0.0000
  Atom  AN      X      Y      Z        X      Y      Z        X      Y      Z
     1   6    -0.01  -0.01  -0.06    -0.02  -0.01  -0.06    -0.00  -0.00  -0.01
     2   6     0.00   0.00  -0.00     0.00   0.00  -0.00    -0.00  -0.00  -0.00
     3   1     0.37   0.05   0.27     0.38   0.05   0.28     0.06   0.01   0.04
     4   1    -0.20   0.05   0.48    -0.19   0.05   0.46    -0.03   0.01   0.08
     5   1    -0.01  -0.02   0.00    -0.00  -0.01   0.00     0.01   0.02  -0.00
     6   6    -0.00   0.00   0.00     0.00  -0.00  -0.00     0.00  -0.00   0.00
     7   6     0.01  -0.01   0.06    -0.02   0.01  -0.06     0.00  -0.00   0.01
     8   1     0.01  -0.02  -0.00    -0.00   0.01   0.00    -0.01   0.02   0.00
     9   1    -0.37   0.05  -0.27     0.38  -0.05   0.28    -0.06   0.01  -0.04
    10   1     0.20   0.05  -0.48    -0.19  -0.05   0.46     0.03   0.01  -0.08
    11   6    -0.00  -0.00   0.01     0.00  -0.00   0.01     0.01  -0.01  -0.06
    12   6     0.00  -0.00  -0.01     0.00   0.00   0.01    -0.01  -0.01   0.06
    13   1     0.00   0.01  -0.12     0.01   0.01  -0.12    -0.05  -0.03   0.67
    14   1     0.00   0.00  -0.00    -0.01   0.02   0.01    -0.08   0.15   0.04
    15   1    -0.00   0.01   0.12     0.01  -0.01  -0.12     0.05  -0.03  -0.67
    16   1    -0.00   0.00   0.00    -0.01  -0.02   0.01     0.08   0.15  -0.04
                     40                     41                     42
                      A                      A                      A
 Frequencies --   3174.2395              3181.8966              3198.4130
 Red. masses --      1.0914                 1.0806                 1.0957
 Frc consts  --      6.4788                 6.4461                 6.6039
 IR Inten    --      0.0000                 0.0000                 0.0000
  Atom  AN      X      Y      Z        X      Y      Z        X      Y      Z
     1   6    -0.00  -0.00  -0.01     0.00  -0.00  -0.00    -0.00   0.00  -0.00
     2   6    -0.00  -0.01   0.00     0.03   0.05  -0.00    -0.04  -0.05   0.00
     3   1     0.07   0.01   0.04    -0.01   0.00  -0.01     0.04  -0.00   0.02
     4   1    -0.03   0.01   0.07    -0.01   0.01   0.02     0.01  -0.01  -0.01
     5   1     0.05   0.09  -0.01    -0.35  -0.60   0.04     0.35   0.61  -0.04
     6   6    -0.00   0.01   0.00     0.03  -0.05  -0.00     0.04  -0.05  -0.00
     7   6    -0.00   0.00  -0.01     0.00   0.00  -0.00     0.00   0.00   0.00
     8   1     0.05  -0.09  -0.01    -0.35   0.60   0.04    -0.35   0.61   0.04
     9   1     0.07  -0.01   0.04    -0.01  -0.00  -0.01    -0.04  -0.00  -0.02
    10   1    -0.03  -0.01   0.07    -0.01  -0.01   0.02    -0.01  -0.01   0.01
    11   6     0.01  -0.01  -0.06     0.00  -0.00  -0.01    -0.00   0.00   0.00
    12   6     0.01   0.01  -0.06     0.00   0.00  -0.01     0.00   0.00  -0.00
    13   1    -0.05  -0.02   0.66    -0.01  -0.00   0.09     0.00   0.00  -0.02
    14   1    -0.09   0.15   0.04    -0.02   0.03   0.01     0.00  -0.01  -0.00
    15   1    -0.05   0.02   0.66    -0.01   0.00   0.09    -0.00   0.00   0.02
    16   1    -0.09  -0.15   0.04    -0.02  -0.03   0.01    -0.00  -0.01   0.00

 -------------------
 - Thermochemistry -
 -------------------
 Temperature   298.150 Kelvin.  Pressure   1.00000 Atm.
 Atom     1 has atomic number  6 and mass  12.00000
 Atom     2 has atomic number  6 and mass  12.00000
 Atom     3 has atomic number  1 and mass   1.00783
 Atom     4 has atomic number  1 and mass   1.00783
 Atom     5 has atomic number  1 and mass   1.00783
 Atom     6 has atomic number  6 and mass  12.00000
 Atom     7 has atomic number  6 and mass  12.00000
 Atom     8 has atomic number  1 and mass   1.00783
 Atom     9 has atomic number  1 and mass   1.00783
 Atom    10 has atomic number  1 and mass   1.00783
 Atom    11 has atomic number  6 and mass  12.00000
 Atom    12 has atomic number  6 and mass  12.00000
 Atom    13 has atomic number  1 and mass   1.00783
 Atom    14 has atomic number  1 and mass   1.00783
 Atom    15 has atomic number  1 and mass   1.00783
 Atom    16 has atomic number  1 and mass   1.00783
 Molecular mass:    82.07825 amu.
 Principal axes and moments of inertia in atomic units:
                           1         2         3
     Eigenvalues --   385.29005 399.64696 716.68454
           X            1.00000  -0.00000  -0.00245
           Y            0.00000   1.00000  -0.00000
           Z            0.00245   0.00000   1.00000
 This molecule is an asymmetric top.
 Rotational symmetry number  1.
 Rotational temperatures (Kelvin)      0.22480     0.21673     0.12085
 Rotational constants (GHZ):           4.68411     4.51584     2.51818
 Zero-point vibrational energy     390321.3 (Joules/Mol)
                                   93.28904 (Kcal/Mol)
 Warning -- explicit consideration of   5 degrees of freedom as
           vibrations may cause significant error
 Vibrational temperatures:    228.29   355.80   583.29   685.60   732.17
          (Kelvin)            984.63  1087.52  1169.25  1229.31  1292.34
                             1330.01  1386.39  1398.29  1468.75  1567.66
                             1579.84  1622.70  1722.53  1767.58  1822.35
                             1871.74  1891.15  1985.82  2025.54  2031.34
                             2042.17  2156.69  2164.90  2183.91  2251.50
                             2265.22  2510.95  4319.93  4320.34  4343.46
                             4368.37  4430.37  4437.68  4527.46  4567.02
                             4578.04  4601.80
 
 Zero-point correction=                           0.148666 (Hartree/Particle)
 Thermal correction to Energy=                    0.154144
 Thermal correction to Enthalpy=                  0.155088
 Thermal correction to Gibbs Free Energy=         0.119965
 Sum of electronic and zero-point Energies=           -234.501299
 Sum of electronic and thermal Energies=              -234.495820
 Sum of electronic and thermal Enthalpies=            -234.494876
 Sum of electronic and thermal Free Energies=         -234.529999
 
                     E (Thermal)             CV                S
                      KCal/Mol        Cal/Mol-Kelvin    Cal/Mol-Kelvin
 Total                   96.727             21.008             73.923
 Electronic               0.000              0.000              0.000
 Translational            0.889              2.981             39.129
 Rotational               0.889              2.981             26.204
 Vibrational             94.950             15.046              8.590
 Vibration     1          0.621              1.893              2.566
 Vibration     2          0.661              1.767              1.750
 Vibration     3          0.770              1.458              0.943
 Vibration     4          0.833              1.302              0.720
 Vibration     5          0.864              1.230              0.636
                       Q            Log10(Q)             Ln(Q)
 Total Bot       0.660318D-55        -55.180247       -127.057215
 Total V=0       0.158890D+14         13.201098         30.396651
 Vib (Bot)       0.189983D-67        -67.721285       -155.934021
 Vib (Bot)    1  0.127464D+01          0.105389          0.242667
 Vib (Bot)    2  0.790233D+00         -0.102245         -0.235428
 Vib (Bot)    3  0.437905D+00         -0.358620         -0.825752
 Vib (Bot)    4  0.352028D+00         -0.453423         -1.044045
 Vib (Bot)    5  0.320413D+00         -0.494291         -1.138146
 Vib (V=0)       0.457151D+01          0.660060          1.519844
 Vib (V=0)    1  0.186920D+01          0.271657          0.625512
 Vib (V=0)    2  0.143513D+01          0.156891          0.361255
 Vib (V=0)    3  0.116465D+01          0.066196          0.152422
 Vib (V=0)    4  0.111149D+01          0.045907          0.105704
 Vib (V=0)    5  0.109386D+01          0.038960          0.089708
 Electronic      0.100000D+01          0.000000          0.000000
 Translational   0.292278D+08          7.465796         17.190631
 Rotational      0.118916D+06          5.075242         11.686176
 ***** Axes restored to original set *****
 -------------------------------------------------------------------
 Center     Atomic                   Forces (Hartrees/Bohr)
 Number     Number              X              Y              Z
 -------------------------------------------------------------------
      1        6          -0.000000729    0.000000501   -0.000000380
      2        6          -0.000000662    0.000000129    0.000000557
      3        1           0.000000483   -0.000000777   -0.000000024
      4        1           0.000000101   -0.000000331   -0.000000277
      5        1           0.000000404    0.000000004   -0.000000214
      6        6           0.000000673    0.000000137   -0.000000561
      7        6           0.000000723    0.000000470    0.000000403
      8        1          -0.000000401    0.000000065    0.000000213
      9        1          -0.000000491   -0.000000781    0.000000015
     10        1          -0.000000098   -0.000000338    0.000000266
     11        6           0.000001269    0.000000345    0.000001533
     12        6          -0.000001282    0.000000412   -0.000001527
     13        1           0.000000001   -0.000000274    0.000000190
     14        1           0.000000632    0.000000372    0.000000346
     15        1          -0.000000002   -0.000000280   -0.000000171
     16        1          -0.000000621    0.000000343   -0.000000369
 -------------------------------------------------------------------
 Cartesian Forces:  Max     0.000001533 RMS     0.000000571
 Z-matrix is all fixed cartesians, so copy forces.
 Leave Link  716 at Mon May 26 08:08:59 2025, MaxMem=   104857600 cpu:               0.1 elap:               0.1
 (Enter /mlatom/software/Gaussian/g16-avx2/l103.exe)

 GradGradGradGradGradGradGradGradGradGradGradGradGradGradGradGradGradGrad
 Berny optimization.
 Search for a local minimum.
 Step number   1 out of a maximum of    2
 All quantities printed in internal units (Hartrees-Bohrs-Radians)
 Second derivative matrix not updated -- analytic derivatives used.
 ITU=  0
     Eigenvalues ---    0.00167   0.00386   0.01335   0.01579   0.03007
     Eigenvalues ---    0.03212   0.04524   0.04570   0.04980   0.05266
     Eigenvalues ---    0.05668   0.05903   0.05953   0.06905   0.07706
     Eigenvalues ---    0.07743   0.08875   0.09450   0.10523   0.13218
     Eigenvalues ---    0.14144   0.15725   0.16645   0.19343   0.19807
     Eigenvalues ---    0.21404   0.23533   0.34436   0.35938   0.52779
     Eigenvalues ---    0.53838   0.65665   0.70427   0.75739   0.76192
     Eigenvalues ---    0.77903   0.81116   0.82563   0.84969   0.92595
     Eigenvalues ---    0.93439   1.44852
 Angle between quadratic step and forces=  72.21 degrees.
 Linear search not attempted -- first point.
 B after Tr=     0.000000    0.000002    0.000000
         Rot=    1.000000    0.000000   -0.000000    0.000000 Ang=  -0.00 deg.
 Variable       Old X    -DE/DX   Delta X   Delta X   Delta X     New X
                                 (Linear)    (Quad)   (Total)
    X1       -2.83791  -0.00000   0.00000  -0.00001  -0.00001  -2.83792
    Y1        0.09919   0.00000   0.00000   0.00001   0.00001   0.09920
    Z1        0.20243  -0.00000   0.00000  -0.00001  -0.00001   0.20242
    X2       -1.25955  -0.00000   0.00000  -0.00000  -0.00000  -1.25955
    Y2        2.47948   0.00000   0.00000   0.00000   0.00001   2.47948
    Z2        0.08898   0.00000   0.00000  -0.00001  -0.00001   0.08898
    X3       -4.49026   0.00000   0.00000   0.00001   0.00001  -4.49025
    Y3        0.32435  -0.00000   0.00000  -0.00001  -0.00001   0.32434
    Z3       -1.03230  -0.00000   0.00000  -0.00004  -0.00004  -1.03233
    X4       -3.60184   0.00000   0.00000  -0.00003  -0.00003  -3.60187
    Y4       -0.11051  -0.00000   0.00000   0.00003   0.00003  -0.11048
    Z4        2.12429  -0.00000   0.00000  -0.00002  -0.00002   2.12427
    X5       -2.29174   0.00000   0.00000   0.00000   0.00000  -2.29173
    Y5        4.25832   0.00000   0.00000   0.00001   0.00001   4.25832
    Z5        0.20594  -0.00000   0.00000  -0.00002  -0.00002   0.20592
    X6        1.25954   0.00000   0.00000   0.00000   0.00000   1.25954
    Y6        2.47948   0.00000   0.00000   0.00000   0.00001   2.47949
    Z6       -0.08898  -0.00000   0.00000   0.00001   0.00001  -0.08898
    X7        2.83791   0.00000   0.00000   0.00001   0.00001   2.83792
    Y7        0.09920   0.00000   0.00000   0.00001   0.00001   0.09921
    Z7       -0.20243   0.00000   0.00000   0.00001   0.00001  -0.20242
    X8        2.29172  -0.00000   0.00000  -0.00000  -0.00000   2.29172
    Y8        4.25833   0.00000   0.00000   0.00001   0.00001   4.25833
    Z8       -0.20594   0.00000   0.00000   0.00002   0.00002  -0.20592
    X9        4.49026  -0.00000   0.00000  -0.00001  -0.00001   4.49025
    Y9        0.32437  -0.00000   0.00000  -0.00001  -0.00001   0.32436
    Z9        1.03229   0.00000   0.00000   0.00004   0.00004   1.03233
   X10        3.60184  -0.00000   0.00000   0.00003   0.00003   3.60187
   Y10       -0.11050  -0.00000   0.00000   0.00003   0.00003  -0.11047
   Z10       -2.12429   0.00000   0.00000   0.00002   0.00002  -2.12427
   X11       -1.33478   0.00000   0.00000  -0.00001  -0.00001  -1.33478
   Y11       -2.27149   0.00000   0.00000  -0.00000  -0.00000  -2.27149
   Z11       -0.56542   0.00000   0.00000   0.00003   0.00003  -0.56540
   X12        1.33479  -0.00000   0.00000   0.00001   0.00001   1.33479
   Y12       -2.27148   0.00000   0.00000  -0.00000  -0.00000  -2.27148
   Z12        0.56542  -0.00000   0.00000  -0.00003  -0.00003   0.56540
   X13       -1.18459   0.00000   0.00000  -0.00004  -0.00004  -1.18463
   Y13       -2.33490  -0.00000   0.00000  -0.00006  -0.00006  -2.33496
   Z13       -2.63094   0.00000   0.00000   0.00003   0.00003  -2.63092
   X14       -2.35615   0.00000   0.00000   0.00001   0.00001  -2.35614
   Y14       -3.98043   0.00000   0.00000   0.00001   0.00001  -3.98042
   Z14        0.01594   0.00000   0.00000   0.00009   0.00009   0.01603
   X15        1.18460  -0.00000   0.00000   0.00004   0.00004   1.18464
   Y15       -2.33490  -0.00000   0.00000  -0.00006  -0.00006  -2.33495
   Z15        2.63094  -0.00000   0.00000  -0.00003  -0.00003   2.63092
   X16        2.35617  -0.00000   0.00000  -0.00001  -0.00001   2.35616
   Y16       -3.98042   0.00000   0.00000   0.00001   0.00001  -3.98041
   Z16       -0.01594  -0.00000   0.00000  -0.00009  -0.00009  -0.01603
         Item               Value     Threshold  Converged?
 Maximum Force            0.000002     0.000450     YES
 RMS     Force            0.000001     0.000300     YES
 Maximum Displacement     0.000091     0.001800     YES
 RMS     Displacement     0.000029     0.001200     YES
 Predicted change in Energy=-1.199385D-10
 Optimization completed.
    -- Stationary point found.
 GradGradGradGradGradGradGradGradGradGradGradGradGradGradGradGradGradGrad

 Leave Link  103 at Mon May 26 08:08:59 2025, MaxMem=   104857600 cpu:               0.1 elap:               0.2
 (Enter /mlatom/software/Gaussian/g16-avx2/l9999.exe)
 1\1\GINC-B004\Freq\RExternal='/mlatom/software/miniconda3/bin/python /
 mlatom/software/mlatom_xacs/ml\ZDO\C6H10\UNKNOWN\26-May-2025\0\\#p Fre
 q external='/mlatom/software/miniconda3/bin/python /mlatom/software/ml
 atom_xacs/mlatom/interfaces/gaussian_interface.py model_predict_kwargs
 '\\bc750d42-3f0b-40f7-b937-d922937e5ac3\\0,1\C,-1.5017596725,0.0524875
 897,0.1071207455\C,-0.6665239778,1.3120838377,0.0470876299\H,-2.376142
 8913,0.1716396085,-0.5462677593\H,-1.9060093433,-0.0584799591,1.124125
 4352\H,-1.2127359616,2.2534040385,0.1089773202\C,0.6665181891,1.312086
 7689,-0.0470874791\C,1.5017596694,0.0524934832,-0.107121224\H,1.212726
 6133,2.2534088737,-0.1089767275\H,2.3761425869,0.1716492331,0.54626698
 53\H,1.9060092541,-0.0584726352,-1.1241260577\C,-0.7063329052,-1.20201
 90159,-0.2992092603\C,0.7063379648,-1.2020160856,0.2992095332\H,-0.626
 8571794,-1.2355768643,-1.3922351645\H,-1.2468224319,-2.1063516707,0.00
 84345694\H,0.6268624607,-1.2355734524,1.3922354291\H,1.2468312851,-2.1
 063466402,-0.0084337007\\Version=ES64L-G16RevA.03\HF=-234.6499644\RMSD
 =0.000e+00\RMSF=5.706e-07\ZeroPoint=0.1486655\Thermal=0.1541443\Dipole
 =0.,-0.3507381,0.\PG=C01 [X(C6H10)]\NImag=0\\0.54487089,-0.00484480,0.
 46874376,0.02131105,-0.01312773,0.56654115,-0.11861892,-0.05661410,-0.
 00125013,0.85482367,-0.05394365,-0.17791828,0.00176383,-0.04724624,0.6
 0017544,0.00176849,0.00612651,-0.07455419,-0.05795622,0.00900149,0.143
 94763,-0.20461221,0.02487340,-0.12451050,-0.02140928,-0.00057120,-0.00
 998352,0.22679143,0.02269492,-0.05394577,0.01638831,-0.02580785,0.0018
 7981,-0.01737602,-0.02361983,0.06113430,-0.12230269,0.01535608,-0.1453
 3629,0.00317469,0.00088303,0.00301722,0.13088039,-0.01669649,0.1490128
 9,-0.07997560,-0.00549040,0.08460967,-0.01346253,-0.00602345,0.0196034
 9,0.01026918,0.00392628,-0.02531317,0.08856759,-0.00638391,-0.05096064
 ,0.02678955,-0.01660237,-0.00464866,0.02486353,-0.00145794,0.00125751,
 0.00397848,0.01126274,0.05771732,0.08183837,0.02459412,-0.26812881,0.0
 0467602,0.00226246,0.00018008,0.00980840,0.00191407,-0.01437055,-0.096
 02453,-0.02544876,0.28796591,0.00654026,-0.01673060,-0.00021101,-0.128
 70910,0.11184271,0.00960115,0.00245648,-0.00085046,0.00012893,0.000350
 58,0.00101537,-0.00162008,0.14035388,0.01414240,-0.01835892,-0.0018464
 9,0.11756525,-0.26611515,-0.01390205,0.00008671,-0.00143931,-0.0007445
 0,-0.00009057,-0.00071040,-0.00040092,-0.12600353,0.28581921,-0.001462
 60,0.00165559,0.00384780,0.01133576,-0.01301055,-0.03812809,0.00095890
 ,-0.00018650,-0.00005910,-0.00087064,-0.00143360,-0.00001611,-0.010359
 09,0.01552695,0.02556465,-0.02283395,-0.00732247,0.00285879,-0.5418596
 7,0.00149131,0.03668782,0.00029539,-0.00042000,0.00056074,-0.00056498,
 0.00022034,-0.00045865,-0.01678755,-0.00373323,-0.00048688,0.85482253,
 -0.03333837,0.00192599,0.00326316,-0.00149774,-0.11756558,0.00099188,-
 0.00195214,-0.00491198,-0.00092708,-0.00269246,-0.00355146,0.00061440,
 0.03429850,0.00146855,-0.00308985,0.04725125,0.60011217,0.00328026,-0.
 00055582,0.00302257,0.03668780,-0.00099154,-0.04153330,-0.00082985,-0.
 00081227,-0.00010746,0.00156546,0.00135786,-0.00026774,0.00197388,0.00
 083796,-0.00031582,-0.05795600,-0.00900086,0.14394757,0.00219893,0.000
 67053,-0.00073859,-0.02283449,0.03333799,0.00328037,0.00110153,-0.0002
 9384,0.00056705,0.00133800,0.00004863,-0.00102298,-0.00405805,-0.00112
 736,0.00148382,-0.11862027,0.05394387,0.00176877,0.54487054,-0.0006704
 7,-0.00256065,-0.00072322,0.00732210,0.00192660,0.00055585,-0.00010967
 ,0.00009742,-0.00016497,-0.00003859,0.00017595,0.00017713,-0.00095453,
 0.00205164,0.00093399,0.05661437,-0.17791580,-0.00612682,0.00484615,0.
 46874288,-0.00073860,0.00072324,-0.00390748,0.00285887,-0.00326313,0.0
 0302256,-0.00051256,-0.00024435,0.00001324,0.00070061,0.00037130,0.000
 04535,0.00141904,-0.00032242,0.01268707,-0.00124989,-0.00176417,-0.074
 55429,0.02131093,0.01312782,0.56654142,-0.00405806,0.00095445,0.001419
 04,-0.01678706,-0.03429875,0.00197376,-0.00060129,-0.00134358,0.000157
 16,-0.00055352,-0.00079967,-0.00021073,0.00176021,0.00029528,-0.000762
 74,-0.12870622,-0.11184118,0.00960061,0.00654023,0.01673102,-0.0002109
 8,0.14035062,0.00112726,0.00205166,0.00032239,0.00373299,0.00146810,-0
 .00083795,-0.00071113,0.00028537,0.00028754,-0.00052903,-0.00007331,-0
 .00003254,-0.00029528,-0.00002259,-0.00028275,-0.11756371,-0.26611838,
 0.01390144,-0.01414194,-0.01835889,0.00184638,0.12600182,0.28582255,0.
 00148382,-0.00093401,0.01268706,-0.00048694,0.00308984,-0.00031580,0.0
 0135609,0.00196246,0.00014448,-0.00177487,-0.00231527,0.00065765,-0.00
 076274,0.00028277,-0.00570225,0.01133521,0.01300995,-0.03812796,-0.001
 46263,-0.00165571,0.00384782,-0.01035845,-0.01552621,0.02556449,0.0011
 0153,0.00010969,-0.00051256,0.00029532,0.00195219,-0.00082985,0.000392
 17,0.00010782,0.00021515,-0.00011553,0.00012216,0.00012487,-0.00060131
 ,0.00071111,0.00135611,-0.02140965,0.00057094,-0.00998372,-0.20461170,
 -0.02487508,-0.12451037,0.00245647,-0.00008669,0.00095889,0.22679089,0
 .00029385,0.00009741,0.00024435,0.00042004,-0.00491193,0.00081224,-0.0
 0010781,-0.00019469,0.00001742,0.00002364,0.00003716,0.00001680,0.0013
 4357,0.00028540,-0.00196244,0.02580755,0.00188014,0.01737585,-0.022696
 58,-0.05394630,-0.01638968,0.00085050,-0.00143933,0.00018652,0.0236217
 0,0.06113487,0.00056705,0.00016498,0.00001323,0.00056074,0.00092708,-0
 .00010745,0.00021515,-0.00001742,0.00010405,-0.00029337,0.00001747,0.0
 0026440,0.00015716,-0.00028754,0.00014447,0.00317478,-0.00088302,0.003
 01728,-0.12230252,-0.01535743,-0.14533638,0.00012892,0.00074451,-0.000
 05909,0.13088024,0.01669801,0.14901298,0.00133800,0.00003859,0.0007006
 2,-0.00056503,0.00269249,0.00156549,-0.00011553,-0.00002364,-0.0002933
 7,-0.00038989,0.00028039,-0.00004911,-0.00055353,0.00052903,-0.0017749
 0,-0.01346282,0.00602329,0.01960385,-0.07997577,0.00548977,0.08461001,
 0.00035059,0.00009057,-0.00087065,0.01026923,-0.00392611,-0.02531316,0
 .08856782,-0.00004862,0.00017594,-0.00037130,-0.00022029,-0.00355141,-
 0.00135785,-0.00012216,0.00003716,-0.00001747,-0.00028039,0.00008526,0
 .00025983,0.00079966,-0.00007331,0.00231524,0.01660222,-0.00464822,-0.
 02486328,0.00638329,-0.05096032,-0.02678787,-0.00101536,-0.00071040,0.
 00143360,0.00145803,0.00125750,-0.00397875,-0.01126207,0.05771683,-0.0
 0102298,-0.00017713,0.00004534,-0.00045862,-0.00061442,-0.00026774,0.0
 0012487,-0.00001680,0.00026440,-0.00004911,-0.00025984,0.00010680,-0.0
 0021073,0.00003254,0.00065766,0.00467611,-0.00226241,0.00017998,0.0818
 3866,-0.02459248,-0.26812911,-0.00162008,0.00040091,-0.00001611,0.0098
 0842,-0.00191390,-0.01437060,-0.09602483,0.02544685,0.28796627,-0.1059
 2597,0.03864172,0.01175778,0.01189498,-0.01231608,-0.00461309,-0.01328
 334,0.02327623,0.01047439,-0.00704964,0.01054635,0.00321555,-0.0016480
 9,-0.00326314,0.00024553,0.00057256,-0.00012503,-0.00101083,-0.0241326
 8,-0.00885478,-0.00602059,0.00002684,0.00003986,0.00053098,-0.00102688
 ,-0.00174153,0.00087568,0.00104066,0.00117603,-0.00067234,0.48394379,0
 .04301339,-0.14544304,-0.02218164,0.01346275,-0.03117792,-0.00698830,0
 .00216351,-0.00221172,-0.00254645,-0.00329143,0.00300105,0.00086906,-0
 .00325458,-0.00190956,0.00012955,0.00117971,0.00238141,0.00001196,-0.0
 2903110,-0.00018447,-0.01053416,-0.00022375,0.00005904,0.00038452,-0.0
 0274819,-0.00437354,0.00089319,-0.00021058,-0.00028963,0.00010753,0.05
 720380,0.54145640,0.01653743,-0.02417675,-0.09287157,0.00096389,0.0017
 5474,0.00325494,-0.00992753,0.01613429,0.00703339,0.01642388,-0.025549
 98,-0.00840078,0.00015452,0.00061188,0.00094563,-0.00035588,0.00166374
 ,0.00180454,0.00583526,-0.00179193,0.00555160,-0.00000030,0.00010417,0
 .00015219,0.00120390,0.00162907,-0.00000811,0.00123827,-0.00019433,0.0
 0133740,-0.02537830,-0.03022389,0.58411342,-0.02413316,0.00885453,-0.0
 0602069,0.00057260,0.00012500,-0.00101084,-0.00102696,0.00174156,0.000
 87570,0.00104067,-0.00117603,-0.00067234,0.00002685,-0.00003986,0.0005
 3099,0.01189499,0.01231668,-0.00461316,-0.10592467,-0.03864115,0.01175
 728,-0.00164818,0.00326316,0.00024555,-0.01328297,-0.02327640,0.010474
 30,-0.00704948,-0.01054645,0.00321549,-0.16477206,-0.00082651,-0.04002
 178,0.48394494,0.02903083,-0.00018404,0.01053407,-0.00117974,0.0023813
 7,-0.00001197,0.00274822,-0.00437345,-0.00089319,0.00021059,-0.0002896
 4,-0.00010754,0.00022374,0.00005905,-0.00038451,-0.01346216,-0.0311779
 7,0.00698816,-0.04301285,-0.14544452,0.02218168,0.00325462,-0.00190949
 ,-0.00012957,-0.00216363,-0.00221206,0.00254651,0.00329130,0.00300084,
 -0.00086898,0.00082527,-0.08449843,0.00275457,-0.05720440,0.54145518,0
 .00583528,0.00179199,0.00555163,-0.00035587,-0.00166374,0.00180455,0.0
 0120393,-0.00162906,-0.00000811,0.00123827,0.00019434,0.00133740,-0.00
 000030,-0.00010417,0.00015220,0.00096388,-0.00175484,0.00325498,0.0165
 3690,0.02417680,-0.09287141,0.00015454,-0.00061189,0.00094562,-0.00992
 734,-0.01613445,0.00703337,0.01642353,0.02555026,-0.00840071,-0.040021
 74,-0.00275513,-0.10128471,-0.02537863,0.03022360,0.58411352,-0.001061
 64,0.00343294,0.01862822,-0.00027394,-0.00000988,-0.00098547,-0.000947
 87,0.00017995,0.00061778,-0.00171368,0.00319522,0.00085271,-0.00016331
 ,-0.00008196,-0.00008020,-0.00112747,-0.00002954,0.00015354,0.00090893
 ,0.00096773,-0.00057817,0.00029070,-0.00068489,-0.00016088,0.00103370,
 0.00073857,0.00027657,0.00047821,0.00055298,0.00048748,-0.05198696,-0.
 00447085,0.01793136,-0.00043656,-0.00276936,-0.03194615,0.05834490,0.0
 0347872,-0.00252365,-0.02961172,0.00148099,-0.00043460,-0.00044508,-0.
 00124579,0.00213610,0.00119316,0.00302217,-0.00371582,-0.00296141,-0.0
 0025254,0.00001876,-0.00001628,-0.00183616,-0.00083660,0.00030382,0.00
 100031,-0.00006847,-0.00143822,0.00024895,-0.00027743,-0.00011775,-0.0
 0024371,-0.00008364,0.00030596,0.00014029,0.00061506,-0.00002667,-0.00
 317037,-0.05585025,-0.00650069,-0.00025380,0.00089048,-0.00041148,-0.0
 0153829,0.05678914,-0.00175427,-0.00171885,-0.01077735,0.00122150,0.00
 043729,-0.00033854,0.00196029,-0.00056218,-0.00046501,0.00170051,-0.00
 187280,0.00131371,-0.00011230,0.00024014,-0.00009450,-0.00155954,-0.00
 111554,-0.00002753,0.00168823,0.00090756,0.00070659,0.00012441,-0.0001
 0105,0.00005336,0.00044552,0.00062718,-0.00006480,-0.00066513,-0.00066
 950,0.00020572,0.02228582,-0.00325012,-0.31442142,0.00023110,-0.003447
 52,-0.01707528,-0.02036033,0.01149995,0.35096979,0.00925743,0.01586244
 ,-0.00433770,-0.00219117,0.00374540,0.00084439,0.00086514,-0.00011335,
 -0.00026420,0.00146998,0.00020578,-0.00067044,0.00063299,0.00045727,0.
 00001022,0.00025210,0.00080739,-0.00009950,-0.00499648,0.00146809,-0.0
 0312579,0.00010899,0.00013230,0.00003660,-0.00120854,-0.00128436,0.000
 24488,0.00031114,-0.00007591,-0.00027458,-0.11237304,-0.10198139,0.037
 53457,-0.01484322,-0.02624606,0.00980680,-0.00023674,-0.00053786,-0.00
 110310,0.11938122,-0.01250159,-0.02239383,0.00705345,0.00409974,-0.001
 35390,-0.00103437,-0.00092988,0.00031429,0.00053694,0.00023084,0.00110
 158,-0.00165184,-0.00092724,-0.00113978,-0.00015216,0.00075166,0.00074
 634,0.00009408,0.00104960,0.00136267,-0.00006481,0.00000583,0.00034411
 ,0.00016042,-0.00071201,0.00001861,-0.00004344,0.00009963,-0.00004095,
 0.00013154,-0.10145550,-0.22387232,0.06313862,0.00103640,0.00202225,-0
 .00023529,0.00134055,0.00266351,-0.00295584,0.10717810,0.23932953,-0.0
 0460463,-0.00913043,0.00358979,0.00038651,-0.00153990,-0.00010832,-0.0
 0090703,0.00130308,0.00041279,-0.00057751,-0.00117613,-0.00062556,-0.0
 0019776,-0.00014084,0.00019314,0.00020154,0.00015201,0.00015400,-0.002
 42422,-0.00031578,-0.00042949,-0.00008509,-0.00011562,0.00006989,-0.00
 028254,-0.00046607,0.00040886,-0.00027355,0.00018565,-0.00026747,0.035
 80509,0.06011258,-0.07569999,-0.00770490,-0.01252388,0.00556873,0.0178
 4278,0.02883329,-0.00999567,-0.03933881,-0.06439042,0.07640701,0.00090
 894,-0.00096773,-0.00057817,-0.00112748,0.00002955,0.00015354,0.001033
 71,-0.00073856,0.00027658,0.00047821,-0.00055298,0.00048749,0.00029070
 ,0.00068489,-0.00016088,-0.00027392,0.00000988,-0.00098548,-0.00106153
 ,-0.00343298,0.01862784,-0.00016332,0.00008196,-0.00008020,-0.00094787
 ,-0.00017998,0.00061777,-0.00171359,-0.00319519,0.00085267,-0.00043657
 ,0.00276940,-0.03194616,-0.05198701,0.00447084,0.01793127,-0.00497570,
 0.00002612,-0.00368854,0.00186743,0.00079699,0.00100927,0.05834482,-0.
 00100029,-0.00006848,0.00143822,0.00183615,-0.00083660,-0.00030383,0.0
 0024371,-0.00008365,-0.00030596,-0.00014030,0.00061507,0.00002667,-0.0
 0024895,-0.00027743,0.00011775,-0.00148098,-0.00043462,0.00044509,-0.0
 0347873,-0.00252385,0.02961197,0.00025254,0.00001877,0.00001627,0.0012
 4578,0.00213611,-0.00119316,-0.00302214,-0.00371592,0.00296142,0.00025
 378,0.00089050,0.00041110,0.00317035,-0.05585019,0.00650154,-0.0000262
 0,0.00108504,0.00104141,0.00031904,-0.00040752,-0.00043457,0.00153838,
 0.05678912,0.00168823,-0.00090754,0.00070659,-0.00155954,0.00111553,-0
 .00002754,0.00044553,-0.00062718,-0.00006480,-0.00066514,0.00066949,0.
 00020572,0.00012440,0.00010106,0.00005335,0.00122149,-0.00043727,-0.00
 033853,-0.00175433,0.00171890,-0.01077727,-0.00011230,-0.00024014,-0.0
 0009449,0.00196030,0.00056218,-0.00046501,0.00170047,0.00187282,0.0013
 1370,0.00023110,0.00344753,-0.01707528,0.02228576,0.00325098,-0.314421
 45,-0.00368854,-0.00104145,0.00085340,-0.00041418,-0.00093987,-0.00084
 248,-0.02036022,-0.01150091,0.35096986,-0.00499647,-0.00146818,-0.0031
 2580,0.00025211,-0.00080740,-0.00009950,-0.00120857,0.00128434,0.00024
 488,0.00031114,0.00007591,-0.00027458,0.00010900,-0.00013230,0.0000366
 0,-0.00219107,-0.00374537,0.00084437,0.00925747,-0.01586196,-0.0043376
 4,0.00063299,-0.00045725,0.00001022,0.00086514,0.00011335,-0.00026420,
 0.00146997,-0.00020577,-0.00067045,-0.01484360,0.02624581,0.00980687,-
 0.11237578,0.10198281,0.03753564,0.00186743,-0.00031903,-0.00041418,0.
 00170278,-0.00006312,0.00115082,-0.00023681,0.00053786,-0.00110305,0.1
 1938428,-0.00104968,0.00136266,0.00006477,-0.00075167,0.00074632,-0.00
 009408,0.00071200,0.00001863,0.00004344,-0.00009963,-0.00004096,-0.000
 13155,-0.00000583,0.00034411,-0.00016042,-0.00409970,-0.00135399,0.001
 03436,0.01250205,-0.02239388,-0.00705358,0.00092726,-0.00113978,0.0001
 5216,0.00092988,0.00031429,-0.00053694,-0.00023084,0.00110158,0.001651
 83,-0.00103663,0.00202260,0.00023538,0.10145693,-0.22386938,-0.0631384
 8,-0.00079697,-0.00040753,0.00093988,0.00006312,0.00130590,-0.00035298
 ,-0.00134059,0.00266365,0.00295589,-0.10717970,0.23932577,-0.00242421,
 0.00031575,-0.00042949,0.00020154,-0.00015201,0.00015399,-0.00028255,0
 .00046606,0.00040886,-0.00027355,-0.00018566,-0.00026747,-0.00008509,0
 .00011562,0.00006989,0.00038648,0.00153989,-0.00010829,-0.00460472,0.0
 0913030,0.00358978,-0.00019776,0.00014083,0.00019313,-0.00090702,-0.00
 130309,0.00041279,-0.00057753,0.00117610,-0.00062555,-0.00770503,0.012
 52376,0.00556876,0.03580616,-0.06011243,-0.07570029,0.00100927,0.00043
 456,-0.00084247,0.00115082,0.00035299,0.00116477,0.01784321,-0.0288330
 1,-0.00999577,-0.03934002,0.06439032,0.07640736\\0.00000073,-0.0000005
 0,0.00000038,0.00000066,-0.00000013,-0.00000056,-0.00000048,0.00000078
 ,0.00000002,-0.00000010,0.00000033,0.00000028,-0.00000040,0.,0.0000002
 1,-0.00000067,-0.00000014,0.00000056,-0.00000072,-0.00000047,-0.000000
 40,0.00000040,-0.00000007,-0.00000021,0.00000049,0.00000078,-0.0000000
 1,0.00000010,0.00000034,-0.00000027,-0.00000127,-0.00000035,-0.0000015
 3,0.00000128,-0.00000041,0.00000153,0.,0.00000027,-0.00000019,-0.00000
 063,-0.00000037,-0.00000035,0.,0.00000028,0.00000017,0.00000062,-0.000
 00034,0.00000037\\\@


 DO NOT LET SELFISH MEN OR GREEDY INTERESTS SKIN YOUR COUNTRY OF ITS
 BEAUTY, ITS RICHES, OR ITS ROMANCE. -- THEODORE ROOSEVELT
 Job cpu time:       0 days  0 hours  0 minutes  0.9 seconds.
 Elapsed time:       0 days  0 hours  0 minutes 17.3 seconds.
 File lengths (MBytes):  RWF=     22 Int=      0 D2E=      0 Chk=      2 Scr=      2
 Normal termination of Gaussian 16 at Mon May 26 08:09:00 2025.
