 Entering Gaussian System, Link 0=/mlatom/software/Gaussian/g16-avx2/g16
 Input=gaussian.com
 Output=gaussian.log
 Initial command:
 /mlatom/software/Gaussian/g16-avx2/l1.exe "/mlatom/home/qhzhang/git/ts-analysis/calculations/C60/energy_barrier/ub3lypd4/react/Gau-216374.inp" -scrdir="/mlatom/home/qhzhang/git/ts-analysis/calculations/C60/energy_barrier/ub3lypd4/react/"
 Entering Link 1 = /mlatom/software/Gaussian/g16-avx2/l1.exe PID=    216380.
  
 Copyright (c) 1988,1990,1992,1993,1995,1998,2003,2009,2016,
            Gaussian, Inc.  All Rights Reserved.
  
 This is part of the Gaussian(R) 16 program.  It is based on
 the Gaussian(R) 09 system (copyright 2009, Gaussian, Inc.),
 the Gaussian(R) 03 system (copyright 2003, Gaussian, Inc.),
 the Gaussian(R) 98 system (copyright 1998, Gaussian, Inc.),
 the Gaussian(R) 94 system (copyright 1995, Gaussian, Inc.),
 the Gaussian 92(TM) system (copyright 1992, Gaussian, Inc.),
 the Gaussian 90(TM) system (copyright 1990, Gaussian, Inc.),
 the Gaussian 88(TM) system (copyright 1988, Gaussian, Inc.),
 the Gaussian 86(TM) system (copyright 1986, Carnegie Mellon
 University), and the Gaussian 82(TM) system (copyright 1983,
 Carnegie Mellon University). Gaussian is a federally registered
 trademark of Gaussian, Inc.
  
 This software contains proprietary and confidential information,
 including trade secrets, belonging to Gaussian, Inc.
  
 This software is provided under written license and may be
 used, copied, transmitted, or stored only in accord with that
 written license.
  
 The following legend is applicable only to US Government
 contracts under FAR:
  
                    RESTRICTED RIGHTS LEGEND
  
 Use, reproduction and disclosure by the US Government is
 subject to restrictions as set forth in subparagraphs (a)
 and (c) of the Commercial Computer Software - Restricted
 Rights clause in FAR 52.227-19.
  
 Gaussian, Inc.
 340 Quinnipiac St., Bldg. 40, Wallingford CT 06492
  
  
 ---------------------------------------------------------------
 Warning -- This program may not be used in any manner that
 competes with the business of Gaussian, Inc. or will provide
 assistance to any competitor of Gaussian, Inc.  The licensee
 of this program is prohibited from giving any competitor of
 Gaussian, Inc. access to this program.  By using this program,
 the user acknowledges that Gaussian, Inc. is engaged in the
 business of creating and licensing software in the field of
 computational chemistry and represents and warrants to the
 licensee that it is not a competitor of Gaussian, Inc. and that
 it will not use this program in any manner prohibited above.
 ---------------------------------------------------------------
  

 Cite this work as:
 Gaussian 16, Revision A.03,
 M. J. Frisch, G. W. Trucks, H. B. Schlegel, G. E. Scuseria, 
 M. A. Robb, J. R. Cheeseman, G. Scalmani, V. Barone, 
 G. A. Petersson, H. Nakatsuji, X. Li, M. Caricato, A. V. Marenich, 
 J. Bloino, B. G. Janesko, R. Gomperts, B. Mennucci, H. P. Hratchian, 
 J. V. Ortiz, A. F. Izmaylov, J. L. Sonnenberg, D. Williams-Young, 
 F. Ding, F. Lipparini, F. Egidi, J. Goings, B. Peng, A. Petrone, 
 T. Henderson, D. Ranasinghe, V. G. Zakrzewski, J. Gao, N. Rega, 
 G. Zheng, W. Liang, M. Hada, M. Ehara, K. Toyota, R. Fukuda, 
 J. Hasegawa, M. Ishida, T. Nakajima, Y. Honda, O. Kitao, H. Nakai, 
 T. Vreven, K. Throssell, J. A. Montgomery, Jr., J. E. Peralta, 
 F. Ogliaro, M. J. Bearpark, J. J. Heyd, E. N. Brothers, K. N. Kudin, 
 V. N. Staroverov, T. A. Keith, R. Kobayashi, J. Normand, 
 K. Raghavachari, A. P. Rendell, J. C. Burant, S. S. Iyengar, 
 J. Tomasi, M. Cossi, J. M. Millam, M. Klene, C. Adamo, R. Cammi, 
 J. W. Ochterski, R. L. Martin, K. Morokuma, O. Farkas, 
 J. B. Foresman, and D. J. Fox, Gaussian, Inc., Wallingford CT, 2016.
 
 ******************************************
 Gaussian 16:  ES64L-G16RevA.03 25-Dec-2016
                 8-Mar-2024 
 ******************************************
 %nproc=1
 Will use up to    1 processors via shared memory.
 ----------------------------------------------------------------------
 #p freq external='/mlatom/software/miniconda3/bin/python /mlatom/softw
 are/mlatom/mlatom/interfaces/gaussian_interface.py model_predict_kwarg
 s'
 ----------------------------------------------------------------------
 1/10=4,18=10,30=1,38=1/1,3;
 2/12=2,17=6,18=5,40=1/2;
 3/11=9,25=1,30=1,41=9900000,43=2,71=2,140=1/1;
 4/20=17,22=2,24=3,113=1,114=1/2;
 6/7=2,8=2,9=2,10=2/1;
 7/8=1,25=1,44=-1/16;
 1/10=4,18=10,30=1/3;
 99//99;
 Leave Link    1 at Fri Mar  8 19:51:04 2024, MaxMem=           0 cpu:               0.0 elap:               0.2
 (Enter /mlatom/software/Gaussian/g16-avx2/l101.exe)
 ------------------------------------
 5f905d75-2060-495a-9b9a-a2a9e18d3d8c
 ------------------------------------
 Symbolic Z-matrix:
 Charge =  0 Multiplicity = 1
 C                    -1.88179   3.36124  -0.28724 
 C                    -0.59986   3.40903  -0.9635 
 C                    -0.4341    2.76574  -2.18741 
 C                    -1.54319   2.04783  -2.78538 
 C                    -2.7743    2.00207  -2.13594 
 C                    -2.94711   2.6723   -0.86159 
 C                    -1.6333    3.25487   1.13761 
 C                    -0.19779   3.23708   1.34231 
 C                     0.44121   3.33219   0.04372 
 C                     1.6064    2.61438  -0.21279 
 C                     0.77961   2.01802  -2.4548 
 C                    -1.01477   0.85683  -3.42239 
 C                    -1.73861  -0.3323   -3.38482 
 C                    -3.02067  -0.37972  -2.70871 
 C                    -3.52804   0.76381  -2.09684 
 C                    -4.1672    0.66884  -0.79843 
 C                    -3.80798   1.84844  -0.03488 
 C                    -3.5693    1.74631   1.33327 
 C                    -2.46012   2.46401   1.93155 
 C                     0.35427   2.42839   2.33266 
 C                    -0.50658   1.60432   3.15929 
 C                    -1.88523   1.62176   2.96275 
 C                    -2.63905   0.38335   3.00161 
 C                    -3.67986   0.46034   1.99463 
 C                    -4.02478  -0.67233   1.26149 
 C                    -4.27333  -0.56599  -0.16341 
 C                    -3.74498  -1.75693  -0.80052 
 C                    -3.13118  -1.66562  -2.04724 
 C                     0.42082   0.83854  -3.21793 
 C                     0.06996  -3.24074  -1.12014 
 C                     0.89689  -2.44917  -1.9138 
 C                     2.00609  -1.73219  -1.31636 
 C                     2.24298  -1.833     0.0517 
 C                     1.38316  -2.65692   0.87829 
 C                    -0.96395  -3.3943    0.98076 
 C                    -2.00473  -3.31717  -0.02622 
 C                    -1.36571  -3.22206  -1.32468 
 C                    -1.91772  -2.41322  -2.31478 
 C                    -1.05676  -1.5891   -3.14148 
 C                     0.32174  -1.60683  -2.94527 
 C                     2.70531   0.58053   0.18099 
 C                     2.5993   -0.65252   0.81445 
 C                     1.96329  -0.74826   2.11348 
 C                     1.21023  -1.9869    2.15305 
 C                    -0.02059  -2.03268   2.80272 
 C                    -1.12988  -2.75052   2.2044 
 C                    -3.17017  -2.59931   0.23052 
 C                    -3.34303  -1.92898   1.50488 
 C                    -2.34344  -2.00292   2.47168 
 C                    -1.98426  -0.82333   3.23517 
 C                    -0.5487   -0.84179   3.43998 
 C                     0.17524   0.34751   3.40263 
 C                     1.45734   0.39522   2.7269 
 C                     1.56795   1.6809    2.06521 
 C                     2.18057   1.77116   0.81797 
 C                     1.07567  -0.36835  -2.98374 
 C                     1.77828   1.94317  -1.48712 
 C                     0.31815  -3.347     0.30426 
 C                     2.11619  -0.44559  -1.97736 
 C                     2.45746   0.68619  -1.24294 
 C                     6.29332   0.67629  -0.04355 
 C                     5.84317  -0.71521  -0.31918 
 C                     7.33073   0.86717   1.03902 
 H                     7.62662   1.91709   1.11835 
 H                     6.95351   0.54945   2.01924 
 H                     8.23135   0.27219   0.83886 
 C                     5.78543  -1.67162   0.8503 
 H                     5.3421   -2.62616   0.5534 
 H                     6.78777  -1.87481   1.24864 
 H                     5.1903   -1.26353   1.67584 
 C                     5.5284   -1.12139  -1.55767 
 H                     5.62595  -0.46561  -2.41705 
 H                     5.17446  -2.1304   -1.74912 
 C                     5.79356   1.72752  -0.70978 
 H                     6.14656   2.73721  -0.51723 
 H                     5.01735   1.61621  -1.45915 
 
 ITRead=  0  0  0  0  0  0  0  0  0  0  0  0  0  0  0  0  0  0  0  0
 ITRead=  0  0  0  0  0  0  0  0  0  0  0  0  0  0  0  0  0  0  0  0
 ITRead=  0  0  0  0  0  0  0  0  0  0  0  0  0  0  0  0  0  0  0  0
 ITRead=  0  0  0  0  0  0  0  0  0  0  0  0  0  0  0  0
 MicOpt= -1 -1 -1 -1 -1 -1 -1 -1 -1 -1 -1 -1 -1 -1 -1 -1 -1 -1 -1 -1
 MicOpt= -1 -1 -1 -1 -1 -1 -1 -1 -1 -1 -1 -1 -1 -1 -1 -1 -1 -1 -1 -1
 MicOpt= -1 -1 -1 -1 -1 -1 -1 -1 -1 -1 -1 -1 -1 -1 -1 -1 -1 -1 -1 -1
 MicOpt= -1 -1 -1 -1 -1 -1 -1 -1 -1 -1 -1 -1 -1 -1 -1 -1
 NAtoms=     76 NQM=       76 NQMF=       0 NMMI=      0 NMMIF=      0
                NMic=       0 NMicF=      0.
                    Isotopes and Nuclear Properties:
 (Nuclear quadrupole moments (NQMom) in fm**2, nuclear magnetic moments (NMagM)
  in nuclear magnetons)

  Atom         1           2           3           4           5           6           7           8           9          10
 IAtWgt=          12          12          12          12          12          12          12          12          12          12
 AtmWgt=  12.0000000  12.0000000  12.0000000  12.0000000  12.0000000  12.0000000  12.0000000  12.0000000  12.0000000  12.0000000
 NucSpn=           0           0           0           0           0           0           0           0           0           0
 AtZEff=  -0.0000000  -0.0000000  -0.0000000  -0.0000000  -0.0000000  -0.0000000  -0.0000000  -0.0000000  -0.0000000  -0.0000000
 NQMom=    0.0000000   0.0000000   0.0000000   0.0000000   0.0000000   0.0000000   0.0000000   0.0000000   0.0000000   0.0000000
 NMagM=    0.0000000   0.0000000   0.0000000   0.0000000   0.0000000   0.0000000   0.0000000   0.0000000   0.0000000   0.0000000
 AtZNuc=   6.0000000   6.0000000   6.0000000   6.0000000   6.0000000   6.0000000   6.0000000   6.0000000   6.0000000   6.0000000

  Atom        11          12          13          14          15          16          17          18          19          20
 IAtWgt=          12          12          12          12          12          12          12          12          12          12
 AtmWgt=  12.0000000  12.0000000  12.0000000  12.0000000  12.0000000  12.0000000  12.0000000  12.0000000  12.0000000  12.0000000
 NucSpn=           0           0           0           0           0           0           0           0           0           0
 AtZEff=  -0.0000000  -0.0000000  -0.0000000  -0.0000000  -0.0000000  -0.0000000  -0.0000000  -0.0000000  -0.0000000  -0.0000000
 NQMom=    0.0000000   0.0000000   0.0000000   0.0000000   0.0000000   0.0000000   0.0000000   0.0000000   0.0000000   0.0000000
 NMagM=    0.0000000   0.0000000   0.0000000   0.0000000   0.0000000   0.0000000   0.0000000   0.0000000   0.0000000   0.0000000
 AtZNuc=   6.0000000   6.0000000   6.0000000   6.0000000   6.0000000   6.0000000   6.0000000   6.0000000   6.0000000   6.0000000

  Atom        21          22          23          24          25          26          27          28          29          30
 IAtWgt=          12          12          12          12          12          12          12          12          12          12
 AtmWgt=  12.0000000  12.0000000  12.0000000  12.0000000  12.0000000  12.0000000  12.0000000  12.0000000  12.0000000  12.0000000
 NucSpn=           0           0           0           0           0           0           0           0           0           0
 AtZEff=  -0.0000000  -0.0000000  -0.0000000  -0.0000000  -0.0000000  -0.0000000  -0.0000000  -0.0000000  -0.0000000  -0.0000000
 NQMom=    0.0000000   0.0000000   0.0000000   0.0000000   0.0000000   0.0000000   0.0000000   0.0000000   0.0000000   0.0000000
 NMagM=    0.0000000   0.0000000   0.0000000   0.0000000   0.0000000   0.0000000   0.0000000   0.0000000   0.0000000   0.0000000
 AtZNuc=   6.0000000   6.0000000   6.0000000   6.0000000   6.0000000   6.0000000   6.0000000   6.0000000   6.0000000   6.0000000

  Atom        31          32          33          34          35          36          37          38          39          40
 IAtWgt=          12          12          12          12          12          12          12          12          12          12
 AtmWgt=  12.0000000  12.0000000  12.0000000  12.0000000  12.0000000  12.0000000  12.0000000  12.0000000  12.0000000  12.0000000
 NucSpn=           0           0           0           0           0           0           0           0           0           0
 AtZEff=  -0.0000000  -0.0000000  -0.0000000  -0.0000000  -0.0000000  -0.0000000  -0.0000000  -0.0000000  -0.0000000  -0.0000000
 NQMom=    0.0000000   0.0000000   0.0000000   0.0000000   0.0000000   0.0000000   0.0000000   0.0000000   0.0000000   0.0000000
 NMagM=    0.0000000   0.0000000   0.0000000   0.0000000   0.0000000   0.0000000   0.0000000   0.0000000   0.0000000   0.0000000
 AtZNuc=   6.0000000   6.0000000   6.0000000   6.0000000   6.0000000   6.0000000   6.0000000   6.0000000   6.0000000   6.0000000

  Atom        41          42          43          44          45          46          47          48          49          50
 IAtWgt=          12          12          12          12          12          12          12          12          12          12
 AtmWgt=  12.0000000  12.0000000  12.0000000  12.0000000  12.0000000  12.0000000  12.0000000  12.0000000  12.0000000  12.0000000
 NucSpn=           0           0           0           0           0           0           0           0           0           0
 AtZEff=  -0.0000000  -0.0000000  -0.0000000  -0.0000000  -0.0000000  -0.0000000  -0.0000000  -0.0000000  -0.0000000  -0.0000000
 NQMom=    0.0000000   0.0000000   0.0000000   0.0000000   0.0000000   0.0000000   0.0000000   0.0000000   0.0000000   0.0000000
 NMagM=    0.0000000   0.0000000   0.0000000   0.0000000   0.0000000   0.0000000   0.0000000   0.0000000   0.0000000   0.0000000
 AtZNuc=   6.0000000   6.0000000   6.0000000   6.0000000   6.0000000   6.0000000   6.0000000   6.0000000   6.0000000   6.0000000

  Atom        51          52          53          54          55          56          57          58          59          60
 IAtWgt=          12          12          12          12          12          12          12          12          12          12
 AtmWgt=  12.0000000  12.0000000  12.0000000  12.0000000  12.0000000  12.0000000  12.0000000  12.0000000  12.0000000  12.0000000
 NucSpn=           0           0           0           0           0           0           0           0           0           0
 AtZEff=  -0.0000000  -0.0000000  -0.0000000  -0.0000000  -0.0000000  -0.0000000  -0.0000000  -0.0000000  -0.0000000  -0.0000000
 NQMom=    0.0000000   0.0000000   0.0000000   0.0000000   0.0000000   0.0000000   0.0000000   0.0000000   0.0000000   0.0000000
 NMagM=    0.0000000   0.0000000   0.0000000   0.0000000   0.0000000   0.0000000   0.0000000   0.0000000   0.0000000   0.0000000
 AtZNuc=   6.0000000   6.0000000   6.0000000   6.0000000   6.0000000   6.0000000   6.0000000   6.0000000   6.0000000   6.0000000

  Atom        61          62          63          64          65          66          67          68          69          70
 IAtWgt=          12          12          12           1           1           1          12           1           1           1
 AtmWgt=  12.0000000  12.0000000  12.0000000   1.0078250   1.0078250   1.0078250  12.0000000   1.0078250   1.0078250   1.0078250
 NucSpn=           0           0           0           1           1           1           0           1           1           1
 AtZEff=  -0.0000000  -0.0000000  -0.0000000  -0.0000000  -0.0000000  -0.0000000  -0.0000000  -0.0000000  -0.0000000  -0.0000000
 NQMom=    0.0000000   0.0000000   0.0000000   0.0000000   0.0000000   0.0000000   0.0000000   0.0000000   0.0000000   0.0000000
 NMagM=    0.0000000   0.0000000   0.0000000   2.7928460   2.7928460   2.7928460   0.0000000   2.7928460   2.7928460   2.7928460
 AtZNuc=   6.0000000   6.0000000   6.0000000   1.0000000   1.0000000   1.0000000   6.0000000   1.0000000   1.0000000   1.0000000

  Atom        71          72          73          74          75          76
 IAtWgt=          12           1           1          12           1           1
 AtmWgt=  12.0000000   1.0078250   1.0078250  12.0000000   1.0078250   1.0078250
 NucSpn=           0           1           1           0           1           1
 AtZEff=  -0.0000000  -0.0000000  -0.0000000  -0.0000000  -0.0000000  -0.0000000
 NQMom=    0.0000000   0.0000000   0.0000000   0.0000000   0.0000000   0.0000000
 NMagM=    0.0000000   2.7928460   2.7928460   0.0000000   2.7928460   2.7928460
 AtZNuc=   6.0000000   1.0000000   1.0000000   6.0000000   1.0000000   1.0000000
 Leave Link  101 at Fri Mar  8 19:51:08 2024, MaxMem=   104857600 cpu:               0.1 elap:               0.5
 (Enter /mlatom/software/Gaussian/g16-avx2/l103.exe)

 GradGradGradGradGradGradGradGradGradGradGradGradGradGradGradGradGradGrad
 Berny optimization.
 Initialization pass.
 Trust Radius=3.00D-01 FncErr=1.00D-07 GrdErr=1.00D-07 EigMax=2.50D+02 EigMin=1.00D-04
 Number of steps in this run=      2 maximum allowed number of steps=      2.
 GradGradGradGradGradGradGradGradGradGradGradGradGradGradGradGradGradGrad

 Leave Link  103 at Fri Mar  8 19:51:08 2024, MaxMem=   104857600 cpu:               0.0 elap:               0.0
 (Enter /mlatom/software/Gaussian/g16-avx2/l202.exe)
 Stoichiometry    C66H10
 Framework group  C1[X(C66H10)]
 Deg. of freedom   222
 Full point group                 C1      NOp   1
 Largest Abelian subgroup         C1      NOp   1
 Largest concise Abelian subgroup C1      NOp   1
                         Standard orientation:                         
 ---------------------------------------------------------------------
 Center     Atomic      Atomic             Coordinates (Angstroms)
 Number     Number       Type             X           Y           Z
 ---------------------------------------------------------------------
      1          6           0       -1.881790    3.361244   -0.287241
      2          6           0       -0.599857    3.409033   -0.963496
      3          6           0       -0.434097    2.765741   -2.187411
      4          6           0       -1.543193    2.047829   -2.785381
      5          6           0       -2.774302    2.002072   -2.135944
      6          6           0       -2.947115    2.672302   -0.861587
      7          6           0       -1.633300    3.254867    1.137607
      8          6           0       -0.197794    3.237076    1.342313
      9          6           0        0.441211    3.332192    0.043722
     10          6           0        1.606401    2.614375   -0.212789
     11          6           0        0.779607    2.018015   -2.454805
     12          6           0       -1.014769    0.856832   -3.422394
     13          6           0       -1.738605   -0.332296   -3.384820
     14          6           0       -3.020667   -0.379720   -2.708714
     15          6           0       -3.528036    0.763811   -2.096835
     16          6           0       -4.167202    0.668836   -0.798431
     17          6           0       -3.807980    1.848439   -0.034877
     18          6           0       -3.569303    1.746315    1.333274
     19          6           0       -2.460122    2.464008    1.931550
     20          6           0        0.354273    2.428387    2.332657
     21          6           0       -0.506578    1.604325    3.159291
     22          6           0       -1.885227    1.621757    2.962752
     23          6           0       -2.639051    0.383353    3.001606
     24          6           0       -3.679862    0.460339    1.994634
     25          6           0       -4.024780   -0.672327    1.261487
     26          6           0       -4.273327   -0.565987   -0.163410
     27          6           0       -3.744984   -1.756929   -0.800524
     28          6           0       -3.131178   -1.665617   -2.047236
     29          6           0        0.420818    0.838542   -3.217927
     30          6           0        0.069957   -3.240745   -1.120136
     31          6           0        0.896889   -2.449175   -1.913801
     32          6           0        2.006086   -1.732195   -1.316358
     33          6           0        2.242976   -1.832996    0.051697
     34          6           0        1.383160   -2.656923    0.878288
     35          6           0       -0.963949   -3.394300    0.980757
     36          6           0       -2.004727   -3.317169   -0.026222
     37          6           0       -1.365712   -3.222065   -1.324677
     38          6           0       -1.917715   -2.413225   -2.314778
     39          6           0       -1.056762   -1.589104   -3.141478
     40          6           0        0.321739   -1.606831   -2.945268
     41          6           0        2.705308    0.580526    0.180988
     42          6           0        2.599297   -0.652516    0.814453
     43          6           0        1.963292   -0.748256    2.113483
     44          6           0        1.210227   -1.986904    2.153049
     45          6           0       -0.020586   -2.032677    2.802718
     46          6           0       -1.129876   -2.750518    2.204398
     47          6           0       -3.170173   -2.599313    0.230523
     48          6           0       -3.343032   -1.928979    1.504884
     49          6           0       -2.343435   -2.002920    2.471679
     50          6           0       -1.984256   -0.823327    3.235171
     51          6           0       -0.548699   -0.841786    3.439976
     52          6           0        0.175244    0.347507    3.402632
     53          6           0        1.457338    0.395221    2.726902
     54          6           0        1.567948    1.680902    2.065214
     55          6           0        2.180571    1.771163    0.817974
     56          6           0        1.075668   -0.368350   -2.983738
     57          6           0        1.778277    1.943166   -1.487124
     58          6           0        0.318154   -3.347000    0.304256
     59          6           0        2.116186   -0.445591   -1.977360
     60          6           0        2.457457    0.686193   -1.242943
     61          6           0        6.293322    0.676288   -0.043548
     62          6           0        5.843174   -0.715205   -0.319183
     63          6           0        7.330729    0.867174    1.039018
     64          1           0        7.626624    1.917091    1.118348
     65          1           0        6.953510    0.549448    2.019241
     66          1           0        8.231346    0.272192    0.838864
     67          6           0        5.785434   -1.671624    0.850298
     68          1           0        5.342099   -2.626155    0.553400
     69          1           0        6.787771   -1.874813    1.248640
     70          1           0        5.190303   -1.263530    1.675842
     71          6           0        5.528403   -1.121386   -1.557668
     72          1           0        5.625955   -0.465615   -2.417050
     73          1           0        5.174462   -2.130402   -1.749122
     74          6           0        5.793564    1.727522   -0.709779
     75          1           0        6.146558    2.737210   -0.517230
     76          1           0        5.017353    1.616214   -1.459149
 ---------------------------------------------------------------------
 Rotational constants (GHZ):           0.0809950           0.0524303           0.0521260
 Leave Link  202 at Fri Mar  8 19:51:08 2024, MaxMem=   104857600 cpu:               0.0 elap:               0.2
 (Enter /mlatom/software/Gaussian/g16-avx2/l301.exe)
 Standard basis: STO-3G (5D, 7F)
 Ernie: Thresh=  0.10000D-02 Tol=  0.10000D-05 Strict=F.
 There are   340 symmetry adapted cartesian basis functions of A   symmetry.
 There are   340 symmetry adapted basis functions of A   symmetry.
   340 basis functions,  1020 primitive gaussians,   340 cartesian basis functions
   203 alpha electrons      203 beta electrons
       nuclear repulsion energy      9811.0800771398 Hartrees.
 IExCor=    0 DFT=F Ex=HF Corr=None ExCW=0 ScaHFX=  1.000000
 ScaDFX=  1.000000  1.000000  1.000000  1.000000 ScalE2=  1.000000  1.000000
 IRadAn=      5 IRanWt=     -1 IRanGd=            0 ICorTp=0 IEmpDi=  4
 NAtoms=   76 NActive=   76 NUniq=   76 SFac= 1.00D+00 NAtFMM=   60 NAOKFM=T Big=T
 Integral buffers will be    131072 words long.
 Raffenetti 1 integral format.
 Two-electron integral symmetry is turned on.
 Leave Link  301 at Fri Mar  8 19:51:09 2024, MaxMem=   104857600 cpu:               0.1 elap:               0.3
 (Enter /mlatom/software/Gaussian/g16-avx2/l402.exe)
 External calculation of energy, first and second derivatives.
 Running external command "/mlatom/software/miniconda3/bin/python /mlatom/software/mlatom/mlatom/interfaces/gaussian_interface.py model_predict_kwargs R"
         input file       "/mlatom/home/qhzhang/git/ts-analysis/calculations/C60/energy_barrier/ub3lypd4/react/Gau-216380.EIn"
         output file      "/mlatom/home/qhzhang/git/ts-analysis/calculations/C60/energy_barrier/ub3lypd4/react/Gau-216380.EOu"
         message file     "/mlatom/home/qhzhang/git/ts-analysis/calculations/C60/energy_barrier/ub3lypd4/react/Gau-216380.EMs"
         fchk file        "/mlatom/home/qhzhang/git/ts-analysis/calculations/C60/energy_barrier/ub3lypd4/react/Gau-216380.EFC"
         mat. el file     "/mlatom/home/qhzhang/git/ts-analysis/calculations/C60/energy_barrier/ub3lypd4/react/Gau-216380.EUF"
 Recovered energy= -2521.17215541     dipole=      0.631600000000     -0.101600000000      0.454600000000
 Energy=    -2521.17216     NIter=   0.
 Dipole moment=       0.631600      -0.101600       0.454600
 Leave Link  402 at Sat Mar  9 13:58:09 2024, MaxMem=   104857600 cpu:               0.1 elap:           65220.2
 (Enter /mlatom/software/Gaussian/g16-avx2/l601.exe)
 Leave Link  601 at Sat Mar  9 13:58:15 2024, MaxMem=   104857600 cpu:               0.0 elap:               1.3
 (Enter /mlatom/software/Gaussian/g16-avx2/l716.exe)
 Dipole        = 6.31600000D-01-1.01600000D-01 4.54600000D-01
 Full mass-weighted force constant matrix:
 Low frequencies ---   -2.5292   -1.4604   -0.0928    0.0792    0.1079    3.9291
 Low frequencies ---   11.4105   15.4224   21.2183
 Diagonal vibrational polarizability:
        0.0000000       0.0000000       0.0000000
 Harmonic frequencies (cm**-1), IR intensities (KM/Mole), Raman scattering
 activities (A**4/AMU), depolarization ratios for plane and unpolarized
 incident light, reduced masses (AMU), force constants (mDyne/A),
 and normal coordinates:
                      1                      2                      3
                      A                      A                      A
 Frequencies --     11.3992                15.3452                21.2080
 Red. masses --      4.4063                 5.9552                 4.4862
 Frc consts  --      0.0003                 0.0008                 0.0012
 IR Inten    --      0.0000                 0.0000                 0.0000
  Atom  AN      X      Y      Z        X      Y      Z        X      Y      Z
     1   6     0.04   0.00   0.01     0.03  -0.00  -0.01    -0.03   0.00   0.01
     2   6     0.05  -0.01   0.02     0.02  -0.01  -0.03    -0.03   0.01  -0.00
     3   6     0.04  -0.01   0.01    -0.00  -0.02  -0.03    -0.04   0.02  -0.00
     4   6     0.04   0.00   0.01    -0.02  -0.01  -0.01    -0.04   0.01   0.00
     5   6     0.03   0.02   0.00    -0.01   0.00   0.01    -0.04   0.00   0.01
     6   6     0.04   0.02   0.00     0.02   0.01   0.01    -0.03  -0.00   0.02
     7   6     0.04  -0.01   0.01     0.05  -0.00  -0.01    -0.01  -0.00   0.01
     8   6     0.03  -0.02   0.02     0.05  -0.01  -0.03    -0.01   0.01  -0.01
     9   6     0.04  -0.03   0.02     0.04  -0.02  -0.04    -0.03   0.02  -0.01
    10   6     0.03  -0.04   0.02     0.02  -0.03  -0.06    -0.02   0.03  -0.02
    11   6     0.03  -0.02   0.02    -0.02  -0.03  -0.04    -0.04   0.03  -0.02
    12   6     0.03   0.00   0.01    -0.04  -0.01  -0.02    -0.04   0.02  -0.01
    13   6     0.01   0.01  -0.00    -0.05  -0.01  -0.00    -0.03   0.01  -0.00
    14   6     0.01   0.02  -0.01    -0.04   0.01   0.02    -0.02   0.00   0.01
    15   6     0.02   0.03  -0.00    -0.02   0.01   0.02    -0.03  -0.00   0.02
    16   6     0.01   0.03  -0.01    -0.00   0.02   0.03    -0.01  -0.01   0.02
    17   6     0.02   0.02  -0.00     0.02   0.02   0.03    -0.02  -0.01   0.02
    18   6     0.02   0.02  -0.00     0.04   0.02   0.02    -0.00  -0.02   0.02
    19   6     0.02   0.00   0.01     0.06   0.01   0.00    -0.00  -0.01   0.01
    20   6     0.02  -0.03   0.02     0.06  -0.02  -0.04     0.00   0.01  -0.01
    21   6     0.01  -0.03   0.01     0.07  -0.01  -0.02     0.02  -0.00  -0.01
    22   6     0.01  -0.01   0.00     0.06   0.00  -0.00     0.01  -0.01   0.00
    23   6    -0.01   0.00  -0.00     0.05   0.01   0.01     0.02  -0.02   0.01
    24   6    -0.00   0.02  -0.01     0.04   0.02   0.03     0.01  -0.02   0.02
    25   6    -0.01   0.02  -0.01     0.01   0.02   0.03     0.01  -0.02   0.02
    26   6    -0.01   0.03  -0.01    -0.01   0.02   0.04     0.00  -0.02   0.02
    27   6    -0.02   0.03  -0.01    -0.03   0.02   0.03     0.00  -0.01   0.01
    28   6    -0.01   0.02  -0.01    -0.05   0.01   0.02    -0.01  -0.00   0.00
    29   6     0.02  -0.02   0.01    -0.04  -0.03  -0.04    -0.04   0.03  -0.02
    30   6    -0.03  -0.02  -0.00    -0.05  -0.02  -0.03     0.01   0.02  -0.03
    31   6    -0.02  -0.03   0.00    -0.05  -0.03  -0.04    -0.00   0.03  -0.04
    32   6    -0.01  -0.04   0.01    -0.03  -0.04  -0.06    -0.00   0.03  -0.04
    33   6    -0.02  -0.05   0.01    -0.02  -0.04  -0.06     0.01   0.03  -0.05
    34   6    -0.04  -0.04   0.01    -0.01  -0.03  -0.05     0.02   0.02  -0.04
    35   6    -0.04  -0.01  -0.01    -0.02  -0.01  -0.01     0.03   0.00  -0.02
    36   6    -0.04   0.00  -0.01    -0.03   0.00   0.01     0.02  -0.00  -0.01
    37   6    -0.03  -0.00  -0.01    -0.05  -0.01  -0.00     0.01   0.01  -0.02
    38   6    -0.02   0.01  -0.01    -0.06  -0.00   0.00    -0.01   0.01  -0.01
    39   6    -0.01   0.00  -0.00    -0.06  -0.01  -0.01    -0.02   0.02  -0.01
    40   6    -0.01  -0.02   0.00    -0.06  -0.03  -0.03    -0.02   0.03  -0.03
    41   6     0.01  -0.06   0.02     0.01  -0.05  -0.07    -0.00   0.03  -0.04
    42   6    -0.01  -0.06   0.02     0.01  -0.04  -0.07     0.01   0.03  -0.05
    43   6    -0.02  -0.05   0.01     0.03  -0.03  -0.06     0.02   0.02  -0.04
    44   6    -0.03  -0.04   0.01     0.02  -0.03  -0.04     0.03   0.01  -0.04
    45   6    -0.04  -0.03   0.00     0.03  -0.01  -0.03     0.04   0.00  -0.03
    46   6    -0.04  -0.02  -0.01     0.01  -0.00  -0.01     0.04  -0.00  -0.02
    47   6    -0.03   0.02  -0.01    -0.02   0.01   0.02     0.02  -0.01   0.00
    48   6    -0.03   0.01  -0.01     0.01   0.02   0.03     0.03  -0.02   0.00
    49   6    -0.03  -0.00  -0.01     0.02   0.01   0.01     0.03  -0.01  -0.00
    50   6    -0.02  -0.01  -0.00     0.04   0.01   0.00     0.03  -0.01  -0.00
    51   6    -0.02  -0.03   0.00     0.05  -0.01  -0.02     0.04  -0.00  -0.02
    52   6    -0.01  -0.04   0.01     0.06  -0.01  -0.03     0.03   0.00  -0.02
    53   6    -0.01  -0.05   0.01     0.05  -0.03  -0.05     0.02   0.01  -0.03
    54   6     0.01  -0.05   0.02     0.05  -0.03  -0.06     0.00   0.02  -0.03
    55   6     0.02  -0.05   0.02     0.03  -0.04  -0.07    -0.01   0.03  -0.03
    56   6     0.01  -0.03   0.01    -0.05  -0.03  -0.05    -0.03   0.03  -0.03
    57   6     0.03  -0.04   0.02    -0.00  -0.04  -0.06    -0.03   0.03  -0.03
    58   6    -0.04  -0.03  -0.00    -0.03  -0.02  -0.03     0.02   0.02  -0.03
    59   6     0.00  -0.04   0.02    -0.03  -0.04  -0.06    -0.02   0.04  -0.04
    60   6     0.01  -0.05   0.02    -0.01  -0.05  -0.07    -0.02   0.04  -0.04
    61   6    -0.03   0.12  -0.10    -0.04   0.10   0.19     0.04  -0.07   0.03
    62   6     0.02   0.09   0.02     0.01   0.10   0.11     0.00  -0.09   0.17
    63   6    -0.03   0.25  -0.12    -0.10   0.09   0.25     0.04   0.01   0.01
    64   1    -0.06   0.27  -0.22    -0.14   0.09   0.31     0.06   0.01  -0.09
    65   1    -0.01   0.33  -0.09    -0.14   0.03   0.22     0.02   0.12   0.05
    66   1    -0.01   0.26  -0.07    -0.07   0.13   0.27     0.02  -0.04   0.08
    67   6     0.06   0.19   0.10     0.00   0.04   0.06    -0.04   0.03   0.26
    68   1     0.09   0.14   0.19     0.05   0.04  -0.00    -0.05   0.01   0.36
    69   1     0.06   0.26   0.12    -0.01   0.06   0.09    -0.05   0.06   0.31
    70   1     0.04   0.24   0.07    -0.05  -0.02   0.06    -0.05   0.13   0.21
    71   6     0.02  -0.03   0.06     0.07   0.15   0.08     0.01  -0.21   0.20
    72   1    -0.01  -0.10   0.00     0.08   0.19   0.11     0.05  -0.30   0.14
    73   1     0.04  -0.06   0.15     0.11   0.15   0.02    -0.01  -0.22   0.30
    74   6    -0.06   0.05  -0.19    -0.05   0.12   0.22     0.06  -0.13  -0.08
    75   1    -0.09   0.08  -0.28    -0.09   0.12   0.28     0.09  -0.12  -0.18
    76   1    -0.06  -0.04  -0.18    -0.01   0.13   0.18     0.07  -0.19  -0.07
                      4                      5                      6
                      A                      A                      A
 Frequencies --     32.3749                75.6656                90.0374
 Red. masses --      3.5933                 4.4345                 3.0649
 Frc consts  --      0.0022                 0.0150                 0.0146
 IR Inten    --      0.0000                 0.0000                 0.0000
  Atom  AN      X      Y      Z        X      Y      Z        X      Y      Z
     1   6    -0.01  -0.00  -0.00    -0.02   0.00   0.00     0.00  -0.00   0.00
     2   6    -0.01  -0.01  -0.00    -0.02   0.00   0.00     0.00  -0.01   0.00
     3   6    -0.01  -0.01  -0.00    -0.02   0.00   0.00     0.00  -0.01   0.00
     4   6    -0.01  -0.00  -0.00    -0.02   0.00   0.00     0.00  -0.00   0.00
     5   6    -0.01  -0.00  -0.00    -0.02   0.00   0.00     0.00  -0.00   0.00
     6   6    -0.01  -0.00  -0.00    -0.02   0.00   0.00     0.00  -0.00   0.00
     7   6    -0.00  -0.00  -0.00    -0.02   0.00   0.00     0.00  -0.00   0.00
     8   6    -0.00  -0.01  -0.00    -0.02   0.00   0.00     0.00  -0.01   0.00
     9   6    -0.01  -0.01  -0.01    -0.02   0.00   0.00     0.00  -0.01   0.00
    10   6    -0.01  -0.01  -0.01    -0.02   0.00   0.00     0.00  -0.01   0.00
    11   6    -0.01  -0.01  -0.00    -0.02   0.00   0.00     0.00  -0.01   0.00
    12   6    -0.01  -0.01  -0.00    -0.02   0.00   0.00    -0.00  -0.01   0.00
    13   6    -0.02  -0.00  -0.00    -0.02   0.00   0.00    -0.00  -0.00   0.00
    14   6    -0.02  -0.00  -0.00    -0.02   0.00   0.00    -0.00  -0.00   0.00
    15   6    -0.01   0.00  -0.00    -0.02   0.00   0.00    -0.00  -0.00   0.00
    16   6    -0.01   0.00  -0.00    -0.02   0.00   0.00    -0.00  -0.00   0.00
    17   6    -0.01   0.00  -0.00    -0.02   0.00   0.00    -0.00  -0.00   0.00
    18   6    -0.01   0.00  -0.00    -0.02   0.00   0.00    -0.00  -0.00   0.00
    19   6    -0.01  -0.00  -0.00    -0.02   0.00   0.00    -0.00  -0.00   0.00
    20   6    -0.01  -0.01  -0.00    -0.02   0.00   0.00    -0.00  -0.01   0.00
    21   6    -0.01  -0.00  -0.00    -0.02   0.00   0.00    -0.00  -0.00   0.00
    22   6    -0.01  -0.00  -0.00    -0.02   0.00   0.00    -0.00  -0.00   0.00
    23   6    -0.01   0.00  -0.00    -0.02   0.00   0.00    -0.00  -0.00   0.00
    24   6    -0.01   0.00  -0.00    -0.02   0.00   0.00    -0.00  -0.00   0.00
    25   6    -0.01   0.00  -0.00    -0.02   0.00   0.00    -0.00  -0.00   0.00
    26   6    -0.02   0.00  -0.00    -0.02   0.00   0.00    -0.00  -0.00   0.00
    27   6    -0.02   0.00  -0.00    -0.02   0.00   0.00    -0.00  -0.00   0.00
    28   6    -0.02  -0.00  -0.00    -0.02   0.00   0.00    -0.00  -0.00   0.00
    29   6    -0.01  -0.01  -0.00    -0.02   0.00   0.00     0.00  -0.01   0.00
    30   6    -0.02  -0.01  -0.00    -0.02   0.01   0.00    -0.01  -0.00   0.00
    31   6    -0.02  -0.01  -0.00    -0.02   0.00   0.00    -0.00  -0.01   0.00
    32   6    -0.02  -0.01  -0.00    -0.01   0.00   0.00    -0.00  -0.01   0.00
    33   6    -0.02  -0.01  -0.00    -0.01   0.00   0.00    -0.01  -0.01   0.00
    34   6    -0.02  -0.01  -0.00    -0.02   0.00   0.00    -0.01  -0.01   0.00
    35   6    -0.02  -0.00  -0.00    -0.02   0.01   0.00    -0.01  -0.00   0.00
    36   6    -0.02  -0.00  -0.00    -0.02   0.00   0.00    -0.01  -0.00   0.00
    37   6    -0.02  -0.00  -0.00    -0.02   0.00   0.00    -0.01  -0.00   0.00
    38   6    -0.02  -0.00  -0.00    -0.02   0.00   0.00    -0.00  -0.00   0.00
    39   6    -0.02  -0.01  -0.00    -0.02   0.00   0.00    -0.00  -0.00   0.00
    40   6    -0.02  -0.01  -0.00    -0.02   0.00   0.00    -0.00  -0.01   0.00
    41   6    -0.01  -0.01  -0.01    -0.01   0.00   0.00     0.00  -0.01   0.00
    42   6    -0.01  -0.01  -0.00    -0.01   0.00   0.00    -0.01  -0.00   0.00
    43   6    -0.01  -0.01  -0.00    -0.02   0.00   0.00    -0.01  -0.01   0.00
    44   6    -0.02  -0.01  -0.00    -0.02   0.01   0.00    -0.01  -0.01   0.00
    45   6    -0.02  -0.01  -0.00    -0.02   0.00   0.00    -0.01  -0.01   0.00
    46   6    -0.02  -0.00  -0.00    -0.02   0.00   0.00    -0.01  -0.00   0.00
    47   6    -0.02   0.00  -0.00    -0.02   0.00   0.00    -0.01  -0.00   0.00
    48   6    -0.02   0.00  -0.00    -0.02   0.00   0.00    -0.01  -0.00   0.00
    49   6    -0.02  -0.00  -0.00    -0.02   0.00   0.00    -0.01  -0.00   0.00
    50   6    -0.01  -0.00  -0.00    -0.02   0.00   0.00    -0.00  -0.00   0.00
    51   6    -0.01  -0.00  -0.00    -0.02   0.00   0.00    -0.00  -0.00   0.00
    52   6    -0.01  -0.01  -0.00    -0.02   0.00   0.00    -0.00  -0.01   0.00
    53   6    -0.01  -0.01  -0.00    -0.02   0.00   0.00    -0.00  -0.01   0.00
    54   6    -0.01  -0.01  -0.01    -0.02   0.00   0.00    -0.00  -0.01   0.00
    55   6    -0.01  -0.01  -0.01    -0.02   0.00   0.00     0.00  -0.01   0.00
    56   6    -0.02  -0.01  -0.00    -0.02   0.00   0.00    -0.00  -0.01   0.00
    57   6    -0.01  -0.01  -0.01    -0.02   0.00   0.00     0.00  -0.01   0.00
    58   6    -0.02  -0.01  -0.00    -0.02   0.01   0.00    -0.01  -0.01   0.00
    59   6    -0.02  -0.01  -0.00    -0.01   0.00   0.00     0.00  -0.01   0.00
    60   6    -0.01  -0.01  -0.01    -0.01   0.00   0.00     0.01  -0.01   0.00
    61   6     0.16   0.03   0.02     0.12  -0.02  -0.00     0.09   0.02  -0.03
    62   6     0.06   0.06   0.04     0.24  -0.05  -0.04    -0.02   0.06  -0.03
    63   6     0.33  -0.05  -0.13     0.01   0.07   0.08    -0.03  -0.04   0.10
    64   1     0.40  -0.07  -0.14    -0.08   0.09   0.11     0.08  -0.08   0.08
    65   1     0.46  -0.07  -0.08    -0.04   0.04   0.05    -0.20   0.05   0.06
    66   1     0.27  -0.10  -0.28     0.08   0.14   0.16    -0.08  -0.16   0.25
    67   6     0.04   0.07   0.04     0.23  -0.06  -0.05    -0.22   0.10  -0.01
    68   1    -0.02   0.09   0.06     0.35  -0.10  -0.10    -0.33   0.15  -0.02
    69   1     0.04   0.01   0.02     0.21   0.04   0.04    -0.27  -0.03   0.05
    70   1     0.09   0.11   0.06     0.11  -0.12  -0.11    -0.21   0.19  -0.06
    71   6    -0.02   0.09   0.05     0.35  -0.06  -0.07     0.07   0.05  -0.05
    72   1    -0.02   0.09   0.06     0.36  -0.05  -0.06     0.23   0.02  -0.06
    73   1    -0.09   0.11   0.06     0.43  -0.09  -0.09    -0.01   0.08  -0.06
    74   6     0.11   0.07   0.13     0.09  -0.06  -0.04     0.27   0.05  -0.13
    75   1     0.18   0.05   0.11    -0.01  -0.03  -0.01     0.35   0.02  -0.13
    76   1    -0.01   0.12   0.24     0.15  -0.12  -0.09     0.33   0.09  -0.20
                      7                      8                      9
                      A                      A                      A
 Frequencies --    117.1645               207.0571               236.6755
 Red. masses --      2.9366                 1.0432                 1.0638
 Frc consts  --      0.0238                 0.0264                 0.0351
 IR Inten    --      0.0000                 0.0000                 0.0000
  Atom  AN      X      Y      Z        X      Y      Z        X      Y      Z
     1   6     0.00   0.00   0.00     0.00   0.00   0.00    -0.00  -0.00  -0.00
     2   6     0.00   0.00   0.00     0.00   0.00   0.00    -0.00  -0.00   0.00
     3   6     0.00   0.00   0.00     0.00   0.00  -0.00    -0.00  -0.00   0.00
     4   6     0.00   0.00   0.00     0.00   0.00  -0.00    -0.00  -0.00   0.00
     5   6     0.00   0.00   0.00     0.00   0.00  -0.00    -0.00   0.00  -0.00
     6   6     0.00   0.00   0.00     0.00   0.00  -0.00    -0.00   0.00  -0.00
     7   6     0.00   0.00   0.00     0.00   0.00   0.00    -0.00  -0.00  -0.00
     8   6     0.00   0.00   0.00     0.00   0.00   0.00    -0.00  -0.00  -0.00
     9   6     0.00   0.00   0.00     0.00   0.00   0.00    -0.00  -0.00  -0.00
    10   6     0.00   0.00   0.00    -0.00   0.00   0.00    -0.00  -0.00   0.00
    11   6     0.00   0.00   0.00     0.00   0.00  -0.00    -0.00  -0.00   0.00
    12   6     0.00   0.00   0.00     0.00   0.00  -0.00    -0.00  -0.00   0.00
    13   6     0.01   0.00   0.00     0.00   0.00  -0.00    -0.00   0.00   0.00
    14   6     0.01   0.00   0.00     0.00  -0.00   0.00    -0.00   0.00  -0.00
    15   6     0.01   0.00   0.00     0.00   0.00   0.00    -0.00   0.00  -0.00
    16   6     0.01   0.00   0.00     0.00  -0.00   0.00    -0.00   0.00  -0.00
    17   6     0.00   0.00   0.00     0.00   0.00  -0.00    -0.00   0.00  -0.00
    18   6     0.00   0.00   0.00     0.00   0.00  -0.00    -0.00   0.00  -0.00
    19   6     0.00   0.00   0.00     0.00   0.00   0.00    -0.00  -0.00  -0.00
    20   6     0.00   0.00   0.00     0.00   0.00   0.00    -0.00  -0.00  -0.00
    21   6     0.00   0.00   0.00     0.00   0.00   0.00    -0.00  -0.00  -0.00
    22   6     0.00   0.00   0.00     0.00   0.00   0.00    -0.00  -0.00  -0.00
    23   6     0.00   0.00   0.00     0.00   0.00   0.00    -0.00   0.00  -0.00
    24   6     0.00   0.00   0.00     0.00   0.00  -0.00    -0.00   0.00  -0.00
    25   6     0.00   0.00   0.00     0.00   0.00  -0.00    -0.00   0.00  -0.00
    26   6     0.01   0.00   0.00     0.00   0.00  -0.00    -0.00   0.00  -0.00
    27   6     0.01   0.00   0.00     0.00  -0.00   0.00    -0.00   0.00  -0.00
    28   6     0.01   0.00   0.00     0.00  -0.00   0.00    -0.00   0.00  -0.00
    29   6     0.00   0.00   0.00     0.00   0.00  -0.00    -0.00  -0.00   0.00
    30   6     0.00   0.00   0.00     0.00  -0.00  -0.00    -0.00   0.00   0.00
    31   6     0.01  -0.00  -0.00     0.00  -0.00  -0.00     0.00   0.00   0.00
    32   6     0.00  -0.00  -0.00    -0.00   0.00   0.00     0.00  -0.00   0.00
    33   6     0.00   0.00   0.00    -0.00  -0.00  -0.00     0.01  -0.00   0.00
    34   6     0.00   0.00   0.00     0.00  -0.00   0.00     0.00  -0.00   0.00
    35   6     0.00  -0.00   0.00     0.00  -0.00   0.00     0.00   0.00  -0.00
    36   6     0.00   0.00   0.00     0.00  -0.00   0.00    -0.00   0.00  -0.00
    37   6     0.01   0.00   0.00     0.00  -0.00  -0.00    -0.00   0.00   0.00
    38   6     0.01   0.00   0.00     0.00  -0.00  -0.00    -0.00   0.00   0.00
    39   6     0.01   0.00   0.00     0.00  -0.00  -0.00    -0.00   0.00   0.00
    40   6     0.01   0.00   0.00     0.00  -0.00  -0.00    -0.00   0.00   0.00
    41   6    -0.00   0.00   0.00    -0.00   0.00   0.00     0.00  -0.00   0.00
    42   6    -0.01   0.00  -0.00    -0.00   0.00  -0.00     0.01  -0.00   0.00
    43   6    -0.00   0.00   0.00    -0.00   0.00   0.00     0.01  -0.00   0.00
    44   6     0.00   0.00   0.00    -0.00  -0.00   0.00     0.00  -0.00   0.00
    45   6     0.00   0.00   0.00     0.00  -0.00   0.00     0.00   0.00  -0.00
    46   6     0.00   0.00   0.00     0.00  -0.00   0.00     0.00   0.00  -0.00
    47   6     0.01   0.00   0.00     0.00   0.00   0.00    -0.00   0.00  -0.00
    48   6     0.00   0.00   0.00     0.00   0.00   0.00    -0.00   0.00  -0.00
    49   6     0.00   0.00   0.00     0.00  -0.00   0.00     0.00   0.00  -0.00
    50   6     0.00   0.00   0.00     0.00   0.00   0.00     0.00   0.00  -0.00
    51   6     0.00   0.00   0.00     0.00   0.00   0.00     0.00   0.00  -0.00
    52   6     0.00   0.00   0.00    -0.00   0.00   0.00     0.00  -0.00  -0.00
    53   6     0.00   0.00   0.00    -0.00   0.00   0.00     0.00  -0.00  -0.00
    54   6     0.00   0.00   0.00    -0.00   0.00   0.00     0.00  -0.00  -0.00
    55   6     0.00   0.00   0.00    -0.00   0.00   0.00     0.00  -0.00   0.00
    56   6     0.00   0.00   0.00     0.00  -0.00  -0.00    -0.00  -0.00   0.00
    57   6     0.00   0.00   0.00    -0.00   0.00   0.00    -0.00  -0.00   0.00
    58   6     0.00  -0.00   0.00     0.00  -0.00   0.00     0.00   0.00  -0.00
    59   6     0.00   0.00  -0.00    -0.00   0.00   0.00     0.00  -0.00   0.00
    60   6    -0.00  -0.00   0.00    -0.00  -0.00   0.00     0.00  -0.00   0.00
    61   6    -0.05  -0.00   0.01    -0.01  -0.00  -0.01    -0.00   0.00  -0.01
    62   6    -0.01  -0.01  -0.01    -0.00   0.00  -0.01     0.01   0.00  -0.01
    63   6     0.05  -0.01  -0.10     0.00  -0.02  -0.01    -0.02  -0.01   0.01
    64   1    -0.00   0.01  -0.06     0.39  -0.11  -0.35     0.13  -0.05  -0.11
    65   1     0.19  -0.10  -0.07    -0.19   0.46   0.07    -0.11   0.16   0.03
    66   1     0.06   0.06  -0.25    -0.21  -0.43   0.26    -0.10  -0.17   0.12
    67   6    -0.23   0.05   0.02     0.01   0.01  -0.00     0.03   0.02   0.00
    68   1    -0.28   0.07   0.02     0.22  -0.08  -0.04    -0.44   0.19   0.14
    69   1    -0.29  -0.02   0.15    -0.01   0.19   0.14     0.10  -0.38  -0.36
    70   1    -0.28   0.14  -0.06    -0.17  -0.07  -0.09     0.48   0.23   0.22
    71   6     0.24  -0.05  -0.06     0.01  -0.00  -0.01     0.03  -0.02  -0.01
    72   1     0.41  -0.07  -0.06    -0.00   0.01  -0.00     0.05  -0.03  -0.02
    73   1     0.28  -0.06  -0.10     0.04  -0.01  -0.02     0.03  -0.02   0.01
    74   6    -0.18  -0.01   0.09    -0.03   0.01   0.03    -0.03   0.01   0.02
    75   1    -0.23   0.01   0.10    -0.01   0.01   0.03    -0.05   0.01   0.03
    76   1    -0.23  -0.04   0.15    -0.06   0.03   0.06    -0.04   0.00   0.03
                     10                     11                     12
                      A                      A                      A
 Frequencies --    266.2655               266.4931               266.7066
 Red. masses --     11.9918                11.9917                11.9848
 Frc consts  --      0.5009                 0.5018                 0.5023
 IR Inten    --      0.0000                 0.0000                 0.0000
  Atom  AN      X      Y      Z        X      Y      Z        X      Y      Z
     1   6     0.03  -0.09   0.10    -0.03   0.18   0.02    -0.06   0.03   0.04
     2   6     0.02  -0.12   0.11     0.00   0.16   0.03    -0.06  -0.06   0.02
     3   6    -0.00  -0.16   0.14     0.01   0.06   0.08     0.00  -0.05   0.01
     4   6     0.02  -0.15   0.11     0.02   0.01   0.14     0.02  -0.03   0.02
     5   6     0.04  -0.13   0.09     0.02   0.03   0.10     0.03   0.01   0.06
     6   6     0.06  -0.11   0.08    -0.02   0.10   0.05    -0.04   0.04   0.05
     7   6     0.02   0.04   0.11    -0.03   0.18   0.03    -0.10   0.05   0.06
     8   6     0.04   0.08   0.12    -0.00   0.18   0.01    -0.09  -0.03   0.01
     9   6     0.03  -0.01   0.10     0.03   0.17   0.01    -0.09  -0.10   0.00
    10   6     0.02  -0.00   0.07     0.03   0.10   0.01    -0.11  -0.12  -0.04
    11   6    -0.02  -0.12   0.10    -0.00   0.03   0.09     0.01  -0.05  -0.04
    12   6    -0.00  -0.11   0.04     0.02  -0.02   0.21     0.06  -0.01  -0.03
    13   6    -0.03  -0.10  -0.07     0.05  -0.02   0.20     0.08  -0.01   0.00
    14   6    -0.04  -0.09  -0.06     0.06  -0.02   0.15     0.12   0.04   0.08
    15   6     0.01  -0.09   0.01     0.05   0.00   0.11     0.08   0.02   0.08
    16   6    -0.00  -0.04   0.00     0.01   0.02   0.06     0.03   0.05   0.07
    17   6     0.02  -0.06   0.04    -0.04   0.08   0.02    -0.06   0.07   0.08
    18   6     0.01   0.02   0.05    -0.04   0.08   0.01    -0.13   0.10   0.11
    19   6    -0.01   0.06   0.10    -0.04   0.12  -0.01    -0.13   0.10   0.12
    20   6     0.07   0.13   0.15    -0.01   0.09  -0.05    -0.11  -0.04  -0.01
    21   6     0.03   0.12   0.14    -0.02   0.04  -0.12    -0.10   0.01   0.04
    22   6     0.00   0.09   0.11    -0.01   0.05  -0.09    -0.12   0.08   0.13
    23   6    -0.00   0.08   0.04     0.02   0.03  -0.12    -0.11   0.06   0.14
    24   6     0.01   0.03   0.01    -0.01   0.03  -0.06    -0.12   0.08   0.13
    25   6     0.01   0.03  -0.03     0.00  -0.01  -0.02    -0.02   0.07   0.08
    26   6    -0.03  -0.04  -0.03     0.00  -0.02   0.01     0.06   0.07   0.07
    27   6    -0.06  -0.05  -0.08    -0.02  -0.06   0.02     0.14   0.11   0.06
    28   6    -0.08  -0.11  -0.11     0.02  -0.05   0.06     0.15   0.08   0.08
    29   6    -0.01  -0.09   0.04    -0.01  -0.02   0.17     0.06  -0.04  -0.08
    30   6    -0.02  -0.04  -0.11     0.03  -0.18  -0.03     0.10  -0.05  -0.06
    31   6     0.01  -0.06  -0.10     0.04  -0.12   0.01     0.12  -0.10  -0.12
    32   6    -0.01  -0.02  -0.05     0.04  -0.08  -0.01     0.13  -0.10  -0.11
    33   6    -0.02   0.06  -0.04     0.04  -0.07  -0.02     0.06  -0.07  -0.08
    34   6    -0.06   0.11  -0.08     0.02  -0.10  -0.05     0.04  -0.04  -0.05
    35   6    -0.02   0.12  -0.11    -0.00  -0.16  -0.03     0.06   0.06  -0.02
    36   6    -0.03   0.01  -0.10    -0.03  -0.17  -0.01     0.09   0.10  -0.00
    37   6    -0.04  -0.08  -0.12     0.00  -0.18  -0.01     0.09   0.03  -0.01
    38   6    -0.07  -0.13  -0.15     0.01  -0.09   0.05     0.11   0.04   0.01
    39   6    -0.03  -0.12  -0.14     0.02  -0.04   0.12     0.10  -0.02  -0.05
    40   6    -0.00  -0.09  -0.11     0.01  -0.05   0.09     0.12  -0.08  -0.13
    41   6     0.03   0.04   0.03    -0.00   0.02  -0.01    -0.06  -0.07  -0.07
    42   6     0.01   0.04  -0.00    -0.01  -0.02  -0.06    -0.03  -0.05  -0.07
    43   6    -0.01   0.09  -0.01    -0.05  -0.00  -0.11    -0.08  -0.02  -0.08
    44   6    -0.04   0.12  -0.09    -0.02  -0.03  -0.10    -0.03  -0.01  -0.06
    45   6    -0.02   0.15  -0.11    -0.02  -0.01  -0.14    -0.02   0.03  -0.02
    46   6     0.00   0.16  -0.14    -0.01  -0.06  -0.08    -0.00   0.05  -0.01
    47   6    -0.02   0.00  -0.07    -0.03  -0.11  -0.01     0.11   0.12   0.04
    48   6     0.01   0.05  -0.08    -0.02  -0.05  -0.04     0.02   0.08   0.04
    49   6     0.02   0.12  -0.10     0.00  -0.03  -0.09    -0.01   0.05   0.04
    50   6     0.01   0.09  -0.04     0.01   0.02  -0.17    -0.07   0.04   0.08
    51   6     0.00   0.11  -0.04    -0.02   0.02  -0.21    -0.06   0.01   0.02
    52   6     0.03   0.10   0.07    -0.05   0.02  -0.20    -0.08   0.00  -0.00
    53   6     0.04   0.09   0.06    -0.06   0.02  -0.15    -0.12  -0.04  -0.08
    54   6     0.08   0.11   0.11    -0.02   0.05  -0.06    -0.14  -0.08  -0.08
    55   6     0.06   0.05   0.08     0.02   0.06  -0.02    -0.13  -0.11  -0.06
    56   6     0.00  -0.08  -0.04    -0.02  -0.03   0.12     0.11  -0.06  -0.14
    57   6    -0.01  -0.05   0.08     0.02   0.05   0.04    -0.02  -0.08  -0.04
    58   6    -0.03   0.09  -0.10     0.03  -0.18  -0.02     0.06  -0.03  -0.04
    59   6    -0.01  -0.03  -0.01     0.01  -0.03   0.06     0.11  -0.08  -0.13
    60   6    -0.01  -0.03   0.03     0.00   0.01   0.02     0.02  -0.07  -0.08
    61   6     0.00  -0.00   0.00    -0.00   0.00  -0.00    -0.00   0.00  -0.00
    62   6     0.00  -0.00   0.00    -0.00   0.00  -0.00    -0.00   0.00   0.00
    63   6     0.00   0.00   0.00    -0.00  -0.01  -0.00    -0.00  -0.00  -0.00
    64   1     0.00   0.00  -0.01    -0.00  -0.01   0.00     0.00  -0.01   0.00
    65   1    -0.00   0.01   0.00    -0.00  -0.01  -0.00     0.00  -0.01  -0.00
    66   1     0.00   0.00   0.01    -0.00  -0.01  -0.01    -0.00  -0.01  -0.01
    67   6    -0.00  -0.00  -0.00     0.00   0.00   0.00     0.01  -0.00   0.00
    68   1    -0.01   0.00  -0.00    -0.00   0.00   0.01    -0.00   0.00   0.00
    69   1    -0.00  -0.01  -0.00     0.01  -0.00  -0.01     0.01  -0.01  -0.01
    70   1     0.00  -0.00   0.00     0.01   0.01   0.01     0.02   0.00   0.01
    71   6    -0.00   0.00   0.00     0.00  -0.00   0.00    -0.01  -0.00   0.00
    72   1     0.00   0.00   0.00    -0.00  -0.00  -0.00    -0.01  -0.00   0.00
    73   1    -0.01   0.01  -0.00     0.01  -0.00   0.00    -0.00  -0.00   0.00
    74   6    -0.00  -0.00  -0.00     0.00   0.00   0.00     0.00   0.00  -0.00
    75   1    -0.00  -0.00  -0.00     0.00   0.00   0.00     0.01   0.00  -0.00
    76   1    -0.00  -0.01   0.00     0.00   0.01  -0.00     0.01   0.01  -0.01
                     13                     14                     15
                      A                      A                      A
 Frequencies --    266.8331               268.4887               274.7598
 Red. masses --     11.7792                10.1220                 2.5390
 Frc consts  --      0.4941                 0.4299                 0.1129
 IR Inten    --      0.0000                 0.0000                 0.0000
  Atom  AN      X      Y      Z        X      Y      Z        X      Y      Z
     1   6    -0.10   0.09  -0.01     0.03   0.09   0.00    -0.00  -0.01  -0.00
     2   6    -0.09   0.00   0.02     0.01   0.10  -0.03     0.00  -0.01   0.00
     3   6    -0.11  -0.02   0.03     0.00   0.09  -0.06     0.00  -0.01   0.00
     4   6    -0.10   0.03  -0.04     0.02   0.05  -0.08     0.00  -0.00   0.01
     5   6    -0.13   0.10  -0.09     0.07   0.02  -0.02    -0.00  -0.00   0.00
     6   6    -0.12   0.12  -0.06     0.09   0.02  -0.01    -0.01  -0.00   0.00
     7   6    -0.05   0.08   0.00     0.02   0.09   0.03    -0.00  -0.01  -0.00
     8   6    -0.05  -0.00   0.03     0.01   0.10   0.04     0.00  -0.01  -0.00
     9   6    -0.09  -0.05   0.03    -0.01   0.11   0.01     0.00  -0.01  -0.00
    10   6    -0.12  -0.10   0.07    -0.06   0.05  -0.01     0.01  -0.00  -0.00
    11   6    -0.14  -0.08   0.10    -0.03   0.05  -0.06     0.01  -0.00   0.00
    12   6    -0.09   0.00  -0.01    -0.00   0.02  -0.10     0.00  -0.00   0.01
    13   6    -0.06  -0.00  -0.06     0.02  -0.02  -0.09     0.00   0.00   0.01
    14   6    -0.07   0.03  -0.08     0.07  -0.02  -0.03    -0.00   0.00   0.01
    15   6    -0.11   0.07  -0.10     0.13  -0.01  -0.00    -0.01   0.00   0.00
    16   6    -0.06   0.08  -0.07     0.21  -0.02   0.01    -0.02   0.00   0.00
    17   6    -0.09   0.10  -0.05     0.17  -0.02   0.00    -0.01   0.00   0.00
    18   6    -0.01   0.08  -0.05     0.14  -0.01   0.00    -0.01  -0.00   0.00
    19   6    -0.02   0.07  -0.00     0.06   0.04   0.04    -0.00  -0.01  -0.00
    20   6    -0.00  -0.00   0.03    -0.02   0.07   0.06     0.00  -0.01  -0.01
    21   6     0.03   0.01   0.03     0.00   0.06   0.10    -0.00  -0.01  -0.01
    22   6     0.03   0.05  -0.03     0.02   0.04   0.08    -0.00  -0.01  -0.01
    23   6     0.09   0.04  -0.09     0.06   0.00   0.06    -0.01  -0.00  -0.00
    24   6     0.09   0.06  -0.08     0.14  -0.01  -0.00    -0.01  -0.00   0.00
    25   6     0.13   0.09  -0.10     0.17  -0.01  -0.01    -0.02  -0.00   0.00
    26   6     0.05   0.08  -0.07     0.21  -0.01   0.00    -0.02  -0.00   0.00
    27   6     0.06   0.07  -0.05     0.13  -0.02  -0.00    -0.01   0.00   0.00
    28   6    -0.00   0.03  -0.07     0.07  -0.03  -0.03    -0.00   0.00   0.01
    29   6    -0.11  -0.05   0.09    -0.02   0.03  -0.08     0.00  -0.00   0.00
    30   6     0.05  -0.08  -0.00    -0.03  -0.09  -0.03     0.00   0.01   0.00
    31   6     0.02  -0.07   0.00    -0.06  -0.04  -0.04     0.01   0.00   0.00
    32   6     0.01  -0.08   0.05    -0.14   0.01   0.00     0.01  -0.00  -0.00
    33   6     0.08  -0.10   0.05    -0.17   0.02  -0.00     0.01  -0.00  -0.00
    34   6     0.11  -0.12   0.06    -0.09  -0.02   0.01     0.01   0.00  -0.00
    35   6     0.09  -0.00  -0.02    -0.02  -0.10   0.03     0.00   0.01  -0.00
    36   6     0.09   0.05  -0.03     0.01  -0.11  -0.01    -0.00   0.01   0.00
    37   6     0.05  -0.00  -0.03    -0.01  -0.10  -0.04     0.00   0.01   0.00
    38   6     0.00   0.00  -0.03     0.02  -0.08  -0.07    -0.00   0.01   0.01
    39   6    -0.03  -0.01  -0.03    -0.01  -0.06  -0.10     0.00   0.01   0.01
    40   6    -0.03  -0.04   0.03    -0.02  -0.04  -0.08     0.00   0.00   0.01
    41   6    -0.05  -0.07   0.07    -0.20   0.01  -0.00     0.01   0.00  -0.00
    42   6     0.06  -0.08   0.07    -0.20   0.02  -0.01     0.01  -0.00  -0.00
    43   6     0.10  -0.07   0.10    -0.13   0.01   0.00     0.01  -0.00  -0.00
    44   6     0.13  -0.10   0.09    -0.07  -0.02   0.02     0.00   0.00  -0.00
    45   6     0.10  -0.04   0.04    -0.03  -0.05   0.08     0.00   0.00  -0.01
    46   6     0.11   0.02  -0.03    -0.00  -0.09   0.06    -0.00   0.01  -0.00
    47   6     0.13   0.10  -0.07     0.06  -0.05   0.01    -0.01   0.00   0.00
    48   6     0.16   0.12  -0.10     0.08  -0.03   0.01    -0.01   0.00   0.00
    49   6     0.14   0.08  -0.10     0.02  -0.05   0.06    -0.00   0.00  -0.00
    50   6     0.11   0.05  -0.09     0.01  -0.03   0.08    -0.00   0.00  -0.01
    51   6     0.09  -0.01   0.01    -0.00  -0.02   0.10    -0.00   0.00  -0.01
    52   6     0.06   0.00   0.06    -0.03   0.02   0.09     0.00  -0.00  -0.01
    53   6     0.07  -0.03   0.08    -0.07   0.02   0.02     0.01  -0.00  -0.00
    54   6     0.01  -0.03   0.07    -0.07   0.03   0.02     0.01  -0.00  -0.00
    55   6    -0.06  -0.07   0.05    -0.13   0.02  -0.00     0.01  -0.00  -0.00
    56   6    -0.09  -0.04   0.09    -0.06  -0.00  -0.05     0.01   0.00   0.00
    57   6    -0.16  -0.12   0.10    -0.09   0.03  -0.01     0.01  -0.00  -0.00
    58   6     0.09  -0.09   0.01    -0.04  -0.08  -0.00     0.00   0.01  -0.00
    59   6    -0.08  -0.06   0.08    -0.14   0.01   0.01     0.01  -0.00  -0.00
    60   6    -0.12  -0.08   0.09    -0.17   0.01   0.01     0.01   0.00  -0.00
    61   6     0.01  -0.00   0.01     0.04  -0.01   0.01     0.03  -0.02   0.06
    62   6     0.00  -0.00   0.01     0.03  -0.01   0.01     0.01  -0.02   0.08
    63   6     0.01   0.01   0.00     0.02   0.07   0.02     0.07   0.18  -0.01
    64   1    -0.01   0.02   0.00     0.03   0.07  -0.07     0.08   0.20  -0.25
    65   1     0.01   0.01   0.01    -0.00   0.16   0.04     0.10   0.40   0.08
    66   1     0.02   0.03   0.01     0.03   0.05   0.10     0.06   0.13   0.10
    67   6    -0.02  -0.01  -0.00    -0.01  -0.05  -0.02    -0.10  -0.17  -0.05
    68   1     0.02  -0.02  -0.03    -0.16   0.02  -0.03    -0.20  -0.08  -0.20
    69   1    -0.03   0.02   0.04    -0.01  -0.20  -0.10    -0.11  -0.34  -0.08
    70   1    -0.07  -0.04  -0.03     0.10  -0.01   0.04    -0.05  -0.24   0.02
    71   6    -0.00   0.02   0.00    -0.00   0.04   0.00    -0.01   0.14   0.03
    72   1     0.01   0.03   0.01     0.03   0.06   0.02     0.08   0.23   0.11
    73   1    -0.02   0.03  -0.01    -0.06   0.07  -0.03    -0.10   0.20  -0.10
    74   6     0.01  -0.01  -0.01    -0.00  -0.05  -0.02    -0.01  -0.12  -0.06
    75   1     0.01  -0.01  -0.04    -0.03  -0.03  -0.07    -0.03  -0.09  -0.23
    76   1     0.01  -0.03  -0.01    -0.02  -0.11   0.01    -0.05  -0.25  -0.01
                     16                     17                     18
                      A                      A                      A
 Frequencies --    304.0308               342.9006               343.4796
 Red. masses --      2.7863                11.9881                11.9625
 Frc consts  --      0.1517                 0.8305                 0.8315
 IR Inten    --      0.0000                 0.0000                 0.0000
  Atom  AN      X      Y      Z        X      Y      Z        X      Y      Z
     1   6     0.00  -0.00   0.00    -0.04   0.16   0.01     0.04   0.02   0.03
     2   6     0.00  -0.00   0.00     0.00   0.13   0.04     0.03   0.07  -0.02
     3   6     0.00  -0.00   0.00    -0.02  -0.09   0.16     0.04   0.06  -0.04
     4   6     0.00  -0.00   0.00     0.01  -0.11   0.18     0.05  -0.01  -0.03
     5   6    -0.00  -0.00   0.00    -0.03  -0.02   0.05     0.14  -0.12   0.08
     6   6    -0.00  -0.00   0.00    -0.02   0.06   0.01     0.14  -0.12   0.08
     7   6    -0.00  -0.00  -0.00    -0.02   0.14  -0.00    -0.04   0.08   0.05
     8   6     0.00  -0.00  -0.00     0.01   0.14  -0.01    -0.03   0.04  -0.02
     9   6     0.00  -0.00  -0.00     0.05   0.17   0.01     0.01   0.07  -0.02
    10   6     0.00  -0.00   0.00     0.05   0.09   0.01     0.00   0.03  -0.03
    11   6     0.00  -0.00   0.00    -0.05  -0.10   0.17     0.02   0.06  -0.04
    12   6     0.00  -0.00   0.00    -0.02  -0.10   0.16    -0.02  -0.00  -0.10
    13   6     0.00   0.00   0.00    -0.05  -0.07  -0.07    -0.05  -0.03  -0.17
    14   6     0.00   0.00   0.00    -0.09  -0.04  -0.11    -0.04  -0.07  -0.12
    15   6    -0.00   0.00   0.00    -0.05  -0.02  -0.04     0.14  -0.09   0.05
    16   6    -0.01   0.00  -0.00    -0.01   0.00  -0.03     0.17  -0.06   0.06
    17   6    -0.01   0.00   0.00     0.01   0.02  -0.02     0.14  -0.08   0.07
    18   6    -0.01   0.00   0.00     0.07  -0.02  -0.05    -0.07   0.05   0.11
    19   6    -0.00  -0.00  -0.00     0.04  -0.00  -0.07    -0.09   0.12   0.11
    20   6     0.00  -0.00  -0.00    -0.04  -0.03  -0.11    -0.08  -0.07  -0.11
    21   6    -0.00  -0.00  -0.00    -0.02  -0.08  -0.14    -0.07  -0.04  -0.11
    22   6    -0.00  -0.00  -0.00     0.02  -0.07  -0.11    -0.10   0.07   0.08
    23   6    -0.00  -0.00  -0.00     0.03  -0.06  -0.01    -0.11   0.04   0.10
    24   6    -0.01   0.00   0.00     0.09  -0.03  -0.04    -0.12   0.03   0.11
    25   6    -0.01  -0.00   0.00     0.07  -0.01  -0.02    -0.03   0.02   0.05
    26   6    -0.01   0.00   0.00     0.05   0.01  -0.03     0.04  -0.03   0.02
    27   6    -0.00   0.00   0.00     0.02   0.03  -0.04    -0.02  -0.03  -0.04
    28   6     0.00   0.00   0.00    -0.07  -0.03  -0.10    -0.09  -0.09  -0.12
    29   6     0.00   0.00  -0.00    -0.04  -0.10   0.17    -0.03   0.04  -0.03
    30   6     0.00   0.00   0.00    -0.02   0.15  -0.00    -0.04   0.08   0.05
    31   6     0.00  -0.00  -0.00     0.04  -0.00  -0.07    -0.09   0.12   0.11
    32   6     0.00  -0.00   0.00     0.07  -0.02  -0.05    -0.06   0.05   0.11
    33   6     0.00   0.00  -0.00     0.01   0.02  -0.03     0.14  -0.08   0.07
    34   6     0.00  -0.00   0.00    -0.02   0.07   0.01     0.15  -0.12   0.08
    35   6     0.00   0.00  -0.00     0.00   0.13   0.04     0.03   0.07  -0.02
    36   6     0.00   0.00   0.00     0.05   0.17   0.01     0.01   0.07  -0.02
    37   6     0.00   0.00   0.00     0.01   0.14  -0.01    -0.03   0.05  -0.02
    38   6     0.00   0.00   0.00    -0.04  -0.03  -0.11    -0.08  -0.07  -0.11
    39   6     0.00   0.00   0.00    -0.01  -0.08  -0.14    -0.07  -0.03  -0.11
    40   6     0.00   0.00  -0.00     0.02  -0.06  -0.11    -0.10   0.07   0.08
    41   6     0.00  -0.00   0.00     0.05   0.01  -0.03     0.04  -0.03   0.02
    42   6     0.00   0.00  -0.00    -0.00   0.00  -0.03     0.17  -0.06   0.06
    43   6     0.00   0.00  -0.00    -0.05  -0.02  -0.04     0.14  -0.09   0.05
    44   6     0.00  -0.00   0.00    -0.03  -0.02   0.05     0.15  -0.12   0.09
    45   6     0.00   0.00  -0.00     0.01  -0.11   0.17     0.05  -0.01  -0.03
    46   6     0.00   0.00  -0.00    -0.02  -0.09   0.16     0.04   0.06  -0.04
    47   6    -0.00   0.00   0.00     0.05   0.09   0.01    -0.00   0.03  -0.03
    48   6    -0.00   0.00  -0.00     0.03   0.00   0.05    -0.00   0.04  -0.01
    49   6     0.00   0.00  -0.00    -0.05  -0.10   0.17     0.02   0.06  -0.05
    50   6     0.00   0.00  -0.00    -0.04  -0.10   0.17    -0.03   0.04  -0.04
    51   6     0.00   0.00  -0.00    -0.02  -0.10   0.16    -0.01  -0.00  -0.10
    52   6     0.00   0.00  -0.00    -0.05  -0.07  -0.08    -0.05  -0.03  -0.17
    53   6     0.00   0.00   0.00    -0.09  -0.04  -0.11    -0.04  -0.07  -0.12
    54   6     0.00   0.00   0.00    -0.07  -0.03  -0.10    -0.09  -0.09  -0.12
    55   6     0.00   0.00   0.00     0.03   0.03  -0.04    -0.02  -0.03  -0.04
    56   6     0.00   0.00  -0.00     0.04  -0.06  -0.01    -0.11   0.04   0.10
    57   6     0.00  -0.00   0.00     0.04   0.00   0.05     0.00   0.04  -0.01
    58   6     0.00  -0.00   0.00    -0.04   0.16   0.01     0.04   0.02   0.04
    59   6     0.00  -0.00  -0.00     0.09  -0.03  -0.04    -0.11   0.03   0.11
    60   6     0.00  -0.00   0.00     0.07  -0.01  -0.02    -0.02   0.02   0.05
    61   6     0.19  -0.07  -0.07     0.00  -0.00  -0.00     0.00  -0.00   0.00
    62   6     0.16  -0.05  -0.12     0.00  -0.00  -0.00    -0.00  -0.00  -0.00
    63   6     0.01   0.08   0.09     0.00   0.01  -0.00     0.00   0.00   0.00
    64   1    -0.12   0.12   0.07    -0.00   0.01  -0.01    -0.00   0.00   0.00
    65   1    -0.15   0.12   0.04     0.00   0.01   0.00    -0.00  -0.00  -0.00
    66   1     0.12   0.16   0.32     0.00   0.01   0.00     0.00   0.00   0.00
    67   6    -0.05   0.11  -0.02    -0.00  -0.00  -0.00    -0.01   0.00   0.00
    68   1    -0.13   0.11   0.09    -0.01   0.00  -0.00     0.01  -0.00   0.00
    69   1    -0.14   0.07   0.17    -0.01  -0.00   0.00    -0.02   0.02   0.02
    70   1    -0.13   0.32  -0.17    -0.01   0.00  -0.00    -0.03   0.00  -0.01
    71   6    -0.13  -0.03  -0.06    -0.01  -0.00  -0.00     0.00   0.01  -0.00
    72   1    -0.16  -0.09  -0.10    -0.01  -0.00  -0.00     0.01   0.01   0.00
    73   1    -0.37   0.03   0.05    -0.01  -0.00   0.00    -0.01   0.01  -0.01
    74   6    -0.07  -0.09   0.10    -0.00  -0.00   0.01    -0.00  -0.00  -0.00
    75   1    -0.31  -0.03   0.23    -0.01  -0.00   0.01    -0.00  -0.00  -0.00
    76   1    -0.08  -0.17   0.12    -0.00   0.00   0.00    -0.00  -0.01   0.00
                     19                     20                     21
                      A                      A                      A
 Frequencies --    343.6727               356.8340               357.0167
 Red. masses --     11.9499                11.9890                11.9919
 Frc consts  --      0.8316                 0.8994                 0.9006
 IR Inten    --      0.0000                 0.0000                 0.0000
  Atom  AN      X      Y      Z        X      Y      Z        X      Y      Z
     1   6    -0.00  -0.14   0.01    -0.00   0.08  -0.08    -0.09   0.15  -0.01
     2   6     0.01  -0.15   0.03     0.01   0.21  -0.11    -0.05   0.02  -0.02
     3   6     0.01  -0.08   0.03    -0.00   0.20  -0.11     0.04  -0.00   0.00
     4   6    -0.03  -0.03   0.02    -0.03   0.12  -0.05     0.06  -0.06   0.11
     5   6    -0.08   0.02  -0.05    -0.03   0.07  -0.04     0.06  -0.01   0.12
     6   6    -0.08   0.01  -0.01    -0.02   0.07  -0.04    -0.11   0.14   0.02
     7   6    -0.01  -0.14  -0.02     0.03  -0.16  -0.12    -0.08   0.07  -0.01
     8   6    -0.01  -0.15  -0.06    -0.01  -0.15  -0.12    -0.07  -0.13  -0.06
     9   6     0.04  -0.11  -0.02     0.02   0.06  -0.08    -0.08  -0.12  -0.03
    10   6     0.18   0.10  -0.03     0.02   0.04  -0.00    -0.05  -0.07  -0.02
    11   6     0.05   0.01   0.03    -0.02   0.07   0.03     0.08   0.04  -0.07
    12   6    -0.03  -0.01   0.04    -0.02   0.02   0.15     0.05  -0.04   0.08
    13   6    -0.05  -0.01  -0.04     0.04  -0.02   0.12     0.06  -0.04   0.10
    14   6    -0.05   0.01  -0.08     0.06  -0.02   0.08     0.12  -0.02   0.15
    15   6    -0.08   0.04  -0.08     0.06   0.01   0.02     0.14  -0.02   0.16
    16   6    -0.04   0.07  -0.03     0.07   0.00   0.01     0.02   0.03   0.07
    17   6    -0.11   0.07   0.01     0.05  -0.01  -0.00    -0.14   0.13   0.03
    18   6    -0.12   0.08   0.05     0.04  -0.09  -0.01    -0.13   0.11   0.04
    19   6    -0.08   0.02   0.06     0.07  -0.15  -0.08    -0.08   0.09   0.01
    20   6    -0.01  -0.08  -0.06    -0.04  -0.13  -0.09    -0.04  -0.15  -0.10
    21   6    -0.04  -0.03  -0.02     0.00  -0.07  -0.01     0.01  -0.09  -0.06
    22   6    -0.07   0.02   0.09    -0.00  -0.08   0.01     0.01  -0.00  -0.10
    23   6    -0.07   0.03   0.12    -0.10  -0.02   0.16     0.06   0.01  -0.13
    24   6    -0.04   0.07   0.07    -0.09  -0.03   0.09     0.01   0.03  -0.06
    25   6     0.17   0.09  -0.03    -0.07  -0.01   0.04     0.07   0.01  -0.05
    26   6     0.18   0.09  -0.01     0.01   0.01   0.02     0.03  -0.01  -0.02
    27   6     0.18   0.10  -0.00     0.01   0.01   0.01    -0.03  -0.05  -0.03
    28   6     0.02  -0.00  -0.06    -0.00  -0.06  -0.00     0.00  -0.08  -0.01
    29   6    -0.02   0.01   0.08    -0.07  -0.00   0.19     0.07   0.03  -0.08
    30   6    -0.02  -0.13  -0.02     0.03  -0.16  -0.12    -0.08   0.08  -0.01
    31   6    -0.08   0.02   0.06     0.07  -0.16  -0.08    -0.08   0.09   0.01
    32   6    -0.11   0.08   0.05     0.04  -0.09  -0.01    -0.13   0.11   0.04
    33   6    -0.10   0.07   0.01     0.05  -0.01  -0.00    -0.14   0.13   0.03
    34   6    -0.08   0.01  -0.02    -0.02   0.07  -0.04    -0.11   0.14   0.02
    35   6     0.01  -0.15   0.03     0.01   0.21  -0.11    -0.05   0.02  -0.02
    36   6     0.04  -0.11  -0.02     0.02   0.06  -0.08    -0.08  -0.12  -0.03
    37   6    -0.01  -0.15  -0.06    -0.00  -0.15  -0.12    -0.07  -0.13  -0.06
    38   6    -0.02  -0.08  -0.06    -0.04  -0.13  -0.09    -0.04  -0.15  -0.10
    39   6    -0.04  -0.03  -0.02     0.00  -0.07  -0.01     0.01  -0.09  -0.06
    40   6    -0.07   0.02   0.09    -0.00  -0.08   0.01     0.01  -0.00  -0.09
    41   6     0.17   0.09  -0.01     0.01   0.01   0.02     0.03  -0.01  -0.02
    42   6    -0.03   0.07  -0.03     0.07   0.00   0.01     0.02   0.03   0.07
    43   6    -0.08   0.04  -0.08     0.06   0.01   0.02     0.14  -0.02   0.16
    44   6    -0.08   0.02  -0.05    -0.03   0.07  -0.04     0.06  -0.01   0.12
    45   6    -0.03  -0.03   0.02    -0.03   0.12  -0.05     0.06  -0.06   0.11
    46   6     0.01  -0.08   0.04     0.00   0.20  -0.11     0.04  -0.00   0.01
    47   6     0.17   0.10  -0.03     0.02   0.04  -0.00    -0.06  -0.07  -0.02
    48   6     0.18   0.11  -0.05    -0.02   0.02   0.02     0.05   0.01  -0.04
    49   6     0.05   0.00   0.03    -0.02   0.07   0.03     0.07   0.04  -0.07
    50   6    -0.02   0.01   0.08    -0.07   0.00   0.19     0.07   0.03  -0.08
    51   6    -0.03  -0.01   0.03    -0.02   0.02   0.15     0.05  -0.04   0.08
    52   6    -0.05  -0.01  -0.04     0.04  -0.02   0.12     0.06  -0.04   0.10
    53   6    -0.05   0.01  -0.08     0.06  -0.02   0.08     0.12  -0.02   0.15
    54   6     0.03   0.00  -0.06     0.00  -0.05   0.00     0.01  -0.08  -0.01
    55   6     0.19   0.10  -0.00     0.01   0.01   0.01    -0.03  -0.05  -0.03
    56   6    -0.06   0.03   0.12    -0.10  -0.02   0.16     0.06   0.01  -0.13
    57   6     0.18   0.11  -0.05    -0.02   0.02   0.02     0.05   0.01  -0.05
    58   6    -0.01  -0.14   0.01     0.00   0.07  -0.08    -0.09   0.16  -0.01
    59   6    -0.04   0.07   0.07    -0.09  -0.03   0.09     0.01   0.03  -0.06
    60   6     0.17   0.09  -0.03    -0.06  -0.01   0.04     0.07   0.01  -0.05
    61   6    -0.01  -0.00   0.00     0.00  -0.00  -0.00    -0.00   0.00   0.00
    62   6    -0.00  -0.00   0.00    -0.00   0.00   0.00    -0.00  -0.00   0.00
    63   6     0.00   0.01  -0.01     0.00  -0.00   0.00    -0.00   0.00  -0.00
    64   1     0.00   0.01  -0.03    -0.00  -0.00   0.01     0.00   0.00  -0.01
    65   1     0.01   0.03   0.00    -0.00  -0.01  -0.00     0.00   0.01   0.00
    66   1    -0.00   0.01  -0.00     0.00  -0.00   0.00    -0.00   0.00  -0.00
    67   6    -0.00  -0.01  -0.00    -0.00   0.00   0.00    -0.00  -0.00  -0.00
    68   1    -0.02  -0.00  -0.00     0.00   0.00   0.01     0.00  -0.00  -0.01
    69   1     0.00  -0.03  -0.01    -0.00   0.01   0.01    -0.00  -0.00   0.00
    70   1     0.01  -0.01   0.01    -0.01   0.01  -0.00    -0.01  -0.01  -0.00
    71   6     0.00  -0.01   0.00     0.00   0.01  -0.00     0.00  -0.00   0.00
    72   1    -0.01  -0.01  -0.00     0.00   0.01   0.00     0.00  -0.01  -0.00
    73   1     0.01  -0.01   0.00    -0.00   0.01  -0.01     0.00  -0.01   0.00
    74   6    -0.01   0.01   0.01    -0.00  -0.00  -0.00    -0.00   0.00   0.00
    75   1    -0.00   0.00   0.02    -0.00  -0.00  -0.01     0.00   0.00   0.01
    76   1    -0.00   0.02   0.00    -0.00  -0.01   0.00     0.00   0.01  -0.00
                     22                     23                     24
                      A                      A                      A
 Frequencies --    357.3562               357.9578               384.9091
 Red. masses --     11.9611                11.9409                 2.4668
 Frc consts  --      0.9000                 0.9015                 0.2153
 IR Inten    --      0.0000                 0.0000                 0.0000
  Atom  AN      X      Y      Z        X      Y      Z        X      Y      Z
     1   6    -0.02   0.02  -0.00    -0.07   0.12  -0.00    -0.00  -0.00  -0.00
     2   6    -0.02   0.02  -0.00    -0.06  -0.04   0.01     0.00  -0.00   0.00
     3   6     0.02   0.06  -0.02    -0.07  -0.04   0.01     0.00  -0.00   0.00
     4   6     0.02   0.02   0.03    -0.07   0.08  -0.14     0.00  -0.00   0.00
     5   6    -0.02   0.01  -0.04    -0.07   0.13  -0.12    -0.00   0.00  -0.00
     6   6     0.02  -0.02  -0.02    -0.05   0.14  -0.07    -0.00   0.00  -0.00
     7   6    -0.02   0.04   0.02    -0.06   0.09   0.03    -0.00  -0.00  -0.00
     8   6    -0.03  -0.03  -0.00    -0.06  -0.03  -0.00    -0.00  -0.00  -0.00
     9   6    -0.04  -0.06  -0.01    -0.08  -0.15   0.01     0.00  -0.00   0.00
    10   6    -0.06  -0.08  -0.06    -0.08  -0.16   0.05     0.00   0.00  -0.00
    11   6     0.05   0.07  -0.05    -0.11  -0.11   0.11     0.00   0.00  -0.00
    12   6     0.01  -0.01   0.14    -0.06   0.03  -0.11     0.00  -0.00   0.00
    13   6    -0.02   0.02   0.16    -0.02  -0.00  -0.08     0.00  -0.00   0.00
    14   6    -0.12  -0.03  -0.04     0.02   0.01  -0.02    -0.00   0.00  -0.00
    15   6    -0.07   0.01  -0.07     0.07   0.04  -0.02    -0.00   0.00  -0.00
    16   6     0.00  -0.02  -0.04     0.24  -0.01   0.03    -0.00   0.00  -0.00
    17   6     0.09  -0.05  -0.02     0.11   0.02  -0.01    -0.00   0.00  -0.00
    18   6     0.15  -0.03  -0.03     0.06  -0.00  -0.01    -0.00   0.00  -0.00
    19   6     0.02   0.06   0.08    -0.02   0.05   0.05    -0.00   0.00   0.00
    20   6    -0.08  -0.03   0.02     0.00   0.00  -0.01    -0.00  -0.00  -0.00
    21   6    -0.03   0.07   0.20     0.00   0.01  -0.02    -0.00  -0.00   0.00
    22   6    -0.03   0.10   0.19    -0.01   0.03   0.04    -0.00   0.00   0.00
    23   6     0.04   0.04   0.07    -0.01   0.01   0.04     0.00  -0.00   0.00
    24   6     0.19  -0.01  -0.07     0.07  -0.01  -0.01     0.00   0.00  -0.00
    25   6     0.17   0.02  -0.11     0.10  -0.04   0.02     0.01   0.00  -0.00
    26   6    -0.00  -0.03  -0.07     0.25  -0.00   0.03     0.01   0.00  -0.00
    27   6    -0.16  -0.12  -0.09     0.09  -0.03   0.04     0.00   0.00  -0.00
    28   6    -0.18  -0.10  -0.10     0.04   0.02   0.02    -0.00  -0.00  -0.00
    29   6     0.02   0.02   0.06    -0.07  -0.03   0.04     0.00  -0.00   0.00
    30   6    -0.02   0.05   0.02    -0.06   0.09   0.03    -0.00   0.00   0.00
    31   6     0.02   0.06   0.08    -0.02   0.06   0.05    -0.00   0.00   0.00
    32   6     0.15  -0.03  -0.03     0.07  -0.00  -0.01     0.00   0.00  -0.00
    33   6     0.09  -0.06  -0.02     0.12   0.02  -0.02     0.00   0.00  -0.00
    34   6     0.02  -0.02  -0.02    -0.05   0.14  -0.07    -0.00   0.00  -0.00
    35   6    -0.02   0.02  -0.01    -0.06  -0.04   0.01    -0.00  -0.00   0.00
    36   6    -0.04  -0.06  -0.01    -0.08  -0.15   0.01    -0.00  -0.00   0.00
    37   6    -0.03  -0.03  -0.00    -0.06  -0.03   0.00    -0.00  -0.00   0.00
    38   6    -0.08  -0.03   0.02     0.00   0.01  -0.01    -0.00  -0.00   0.00
    39   6    -0.02   0.07   0.21     0.00   0.01  -0.02    -0.00   0.00   0.00
    40   6    -0.03   0.10   0.19    -0.01   0.04   0.05    -0.00   0.00   0.00
    41   6     0.00  -0.03  -0.07     0.25  -0.00   0.03    -0.00   0.00  -0.00
    42   6     0.01  -0.02  -0.04     0.24  -0.01   0.03     0.00   0.00  -0.00
    43   6    -0.07   0.01  -0.07     0.08   0.04  -0.02     0.00   0.00  -0.00
    44   6    -0.02   0.01  -0.04    -0.06   0.13  -0.12    -0.00   0.00  -0.00
    45   6     0.02   0.02   0.03    -0.07   0.08  -0.14    -0.00  -0.00  -0.00
    46   6     0.02   0.07  -0.02    -0.07  -0.03   0.01    -0.00  -0.00   0.00
    47   6    -0.06  -0.08  -0.06    -0.09  -0.16   0.05     0.00  -0.00  -0.00
    48   6     0.10   0.03  -0.10    -0.10  -0.15   0.09     0.00   0.00  -0.00
    49   6     0.05   0.07  -0.05    -0.11  -0.11   0.11     0.00  -0.00   0.00
    50   6     0.02   0.02   0.06    -0.07  -0.03   0.03     0.00  -0.00   0.00
    51   6     0.01  -0.01   0.14    -0.06   0.03  -0.11    -0.00  -0.00  -0.00
    52   6    -0.03   0.02   0.16    -0.02  -0.00  -0.09    -0.00  -0.00  -0.00
    53   6    -0.12  -0.03  -0.04     0.02   0.01  -0.02    -0.00  -0.00  -0.00
    54   6    -0.18  -0.10  -0.10     0.05   0.02   0.02    -0.00   0.00  -0.00
    55   6    -0.16  -0.12  -0.09     0.10  -0.03   0.04     0.00   0.00  -0.00
    56   6     0.04   0.04   0.07    -0.00   0.01   0.04     0.00  -0.00  -0.00
    57   6     0.10   0.03  -0.10    -0.09  -0.15   0.09     0.00   0.00  -0.00
    58   6    -0.02   0.03  -0.00    -0.07   0.13   0.00    -0.00   0.00   0.00
    59   6     0.19  -0.01  -0.07     0.07  -0.01  -0.01     0.00  -0.00  -0.00
    60   6     0.17   0.02  -0.11     0.11  -0.04   0.02    -0.00   0.00  -0.00
    61   6     0.00  -0.00  -0.00     0.00  -0.00  -0.00    -0.00  -0.03   0.02
    62   6     0.00  -0.00  -0.00    -0.00  -0.00  -0.00     0.01   0.01   0.02
    63   6     0.00   0.01  -0.00     0.00   0.01  -0.00    -0.01  -0.14   0.03
    64   1    -0.01   0.01  -0.02    -0.01   0.01  -0.01     0.05  -0.17   0.15
    65   1     0.00   0.02   0.00     0.00   0.02   0.00    -0.03  -0.24  -0.01
    66   1     0.01   0.02   0.01     0.01   0.01   0.00    -0.05  -0.18  -0.04
    67   6    -0.01  -0.00  -0.00    -0.02   0.00   0.00     0.06   0.11   0.09
    68   1    -0.01  -0.00  -0.00    -0.00  -0.01  -0.00     0.09   0.05   0.22
    69   1    -0.01  -0.01   0.00    -0.03   0.01   0.03     0.08   0.20   0.09
    70   1    -0.01   0.00  -0.01    -0.04  -0.00  -0.02     0.07   0.19   0.05
    71   6    -0.01  -0.01   0.00    -0.01  -0.00  -0.00     0.02   0.20  -0.04
    72   1    -0.02  -0.01  -0.00    -0.01  -0.00  -0.00     0.12   0.36   0.09
    73   1    -0.02  -0.01   0.01    -0.02   0.00  -0.00    -0.04   0.27  -0.25
[...]
 001216,0.00036480,-0.00008271,0.00018616,-0.00015517,-0.00033377,-0.00
 006311,0.00024794,0.00014050,-0.00053125,-0.00011356,-0.00023976,0.000
 16932,-0.00024435,0.00010171,0.00040559,0.00038269,-0.00008214,0.00000
 880,-0.00021899,-0.00008500,0.00036946,-0.00021900,0.00008596,0.000439
 62,-0.00011121,-0.00009273,-0.00032784,-0.00044257,0.00072044,0.000085
 30,-0.00033265,-0.10726041,0.16163248,-0.18675021,0.00557828,0.0051383
 3,0.01204431,-0.01848767,0.02037397,-0.01339718,0.00100753,0.00146329,
 0.00035938,-0.00158401,0.00006651,-0.00098924,-0.00177383,-0.00046204,
 -0.00207727,-0.00071248,-0.00193031,-0.00068295,-0.00004818,-0.0004017
 4,0.00057875,0.00004589,-0.00028685,-0.00005670,-0.00009770,-0.0001944
 5,0.00000234,-0.00245614,-0.00433224,-0.00418505,0.00193233,-0.0015027
 0,0.00013049,-0.00129783,0.00027892,0.00032691,0.31002298,-0.11229791,
 0.43018728,-0.00006160,0.00005201,-0.00003783,-0.00001330,-0.00005987,
 0.00009820,-0.00000658,-0.00005475,0.00007043,-0.00007383,0.00008274,-
 0.00007126,0.00011977,0.00000722,0.00000695,0.00014988,-0.00001132,0.0
 0002505,0.00008202,-0.00010506,0.00000349,-0.00005013,-0.00006205,0.00
 001832,-0.00013952,-0.00001814,0.00006702,-0.00008240,-0.00000177,-0.0
 0010859,-0.00002831,0.00000538,-0.00009787,0.00010598,0.00001051,-0.00
 010278,-0.00000478,0.00010100,-0.00002658,-0.00004614,0.00001014,-0.00
 002560,-0.00002614,0.00004056,0.00003880,-0.00004115,-0.00003510,0.000
 03139,-0.00008080,0.00010826,0.00001075,0.00011526,-0.00001621,-0.0000
 0944,0.00006480,0.00008943,-0.00006186,-0.00003290,0.00011021,-0.00001
 324,0.00003416,-0.00002988,-0.00011638,-0.00001625,0.00010014,0.000034
 14,0.00006112,-0.00002844,-0.00009173,-0.00002121,0.00001516,0.0000180
 2,-0.00005556,0.00011594,0.00006397,-0.00009017,0.00005115,-0.00006838
 ,-0.00016131,-0.00011997,-0.00001772,0.00009475,-0.00002680,0.00008444
 ,-0.00005245,0.00005876,0.00014684,0.00002993,-0.00016036,0.00006375,0
 .00007819,-0.00007003,-0.00010672,-0.00013121,0.00003408,0.00027312,0.
 00012699,-0.00025887,-0.00010300,0.00009152,-0.00004925,0.00002250,0.0
 0001853,-0.00017769,0.00005362,-0.00000946,-0.00019977,0.00006359,-0.0
 0004229,0.00006854,0.00001556,0.00003909,-0.00007014,-0.00016833,-0.00
 007633,-0.00011782,-0.00009434,-0.00001056,0.00001904,0.00010550,-0.00
 008627,0.00008441,-0.00000323,0.00005832,0.00019702,-0.00016669,-0.000
 00101,0.00006312,0.00013246,-0.00000648,0.00005021,-0.00005182,-0.0000
 2690,-0.00004350,0.00013267,0.00005866,0.00010178,0.00001127,-0.000015
 43,0.00005159,-0.00014854,-0.00007584,-0.00000625,0.00006742,-0.000105
 86,-0.00004268,0.00008573,0.00002993,0.00001380,0.00018440,-0.00002442
 ,0.00010932,-0.00001652,-0.00007428,-0.00000604,0.00010368,0.00006331,
 -0.00004414,0.00002669,-0.00008976,-0.00001118,-0.00010422,0.00013179,
 -0.00015042,0.00007867,-0.00004975,0.00003845,-0.00005207,0.00007193,-
 0.00011187,-0.00004087,0.00000211,-0.00001517,-0.00016309,0.00021809,0
 .00029539,-0.00011799,0.00004129,-0.00003923,0.00007719,0.00703124,0.0
 1237211,0.00153946,0.00413451,-0.00019854,-0.00800116,-0.00346907,0.00
 194899,0.00409961,0.00006924,-0.00004123,-0.00029151,0.00065734,-0.000
 29472,0.00065246,-0.00042654,0.00034943,-0.00077013,0.00058310,0.00140
 750,0.00064194,-0.00003576,0.00042771,-0.00038072,-0.00006103,-0.00006
 580,0.00008662,0.00000287,-0.00006239,0.00010147,-0.00003168,-0.001295
 48,0.00061622,-0.00018767,0.00003305,0.00003690,-0.00021159,0.00011876
 ,0.00000664,-0.07642912,-0.09151789,-0.03083928,0.07164010,-0.00005526
 ,0.00003599,-0.00004229,-0.00001252,-0.00006660,0.00008717,-0.00001278
 ,-0.00003982,0.00006369,-0.00005624,0.00007397,-0.00006184,0.00009966,
 0.00000667,0.00001610,0.00013090,-0.00001345,0.00001193,0.00008435,-0.
 00010949,0.00001210,-0.00004798,-0.00004631,-0.00000542,-0.00009819,-0
 .00002859,0.00006550,-0.00005254,-0.00002128,-0.00006501,-0.00001186,0
 .00000765,-0.00010577,0.00005552,0.00000167,-0.00010063,0.00000430,0.0
 0010917,-0.00001445,-0.00005260,0.00000795,-0.00001244,-0.00000634,0.0
 0002971,0.00003090,-0.00003316,-0.00003750,0.00004365,-0.00007319,0.00
 008550,0.00000626,0.00011254,-0.00002249,-0.00000892,0.00005530,0.0000
 7769,-0.00004683,-0.00000833,0.00008025,-0.00002208,0.00002995,-0.0000
 3954,-0.00011300,-0.00002171,0.00009528,0.00002464,0.00006466,-0.00003
 294,-0.00008666,-0.00001078,0.00000627,0.00000092,-0.00004844,0.000104
 36,0.00005064,-0.00007486,0.00004985,-0.00005200,-0.00013236,-0.000110
 33,-0.00001595,0.00008896,-0.00001762,0.00008566,-0.00003161,0.0000559
 1,0.00018224,0.00002555,-0.00011152,-0.00000151,0.00002985,-0.00008321
 ,-0.00010837,-0.00003386,0.00007758,0.00018737,0.00016659,-0.00008858,
 -0.00005006,0.00003156,-0.00008890,0.00005376,0.00000145,-0.00016139,0
 .00005168,0.00000197,-0.00016882,0.00006788,-0.00002239,0.00006872,0.0
 0002032,0.00004369,-0.00004816,-0.00015667,-0.00006214,-0.00012800,-0.
 00006927,-0.00002197,0.00000733,0.00009796,-0.00004069,0.00007267,0.00
 004611,0.00000335,0.00007428,-0.00018190,-0.00001734,0.00006587,0.0001
 3701,-0.00001815,0.00005412,-0.00005843,-0.00002255,-0.00004226,0.0001
 1657,0.00007001,0.00011038,-0.00000861,-0.00000385,0.00005497,-0.00014
 139,-0.00005648,-0.00000036,0.00005951,-0.00010247,-0.00002787,0.00006
 776,0.00002510,0.00001157,0.00015719,-0.00002315,0.00009209,-0.0000236
 6,-0.00008847,-0.00001513,0.00009038,0.00005975,-0.00009962,-0.0000090
 2,-0.00006022,0.00003468,-0.00013432,0.00009869,-0.00007666,0.00006313
 ,-0.00004170,0.00001717,-0.00006023,0.00001434,-0.00005107,-0.00001240
 ,0.00003809,0.00004050,-0.00009357,0.00001734,0.00013142,-0.00011665,0
 .00006725,-0.00000979,0.00008200,-0.01005707,-0.02097725,-0.00646436,0
 .00153224,-0.00066512,0.00419571,-0.00078642,0.00030646,-0.00215534,0.
 00085030,0.00082492,0.00081873,0.00001737,0.00031172,-0.00008327,0.000
 10806,0.00030326,0.00016193,-0.00025797,-0.00103374,-0.00094212,0.0000
 3257,-0.00028299,0.00037508,0.00004611,-0.00008999,0.00009921,-0.00002
 163,0.00006248,0.00004515,-0.00008071,0.00015997,0.00045358,0.00000185
 ,0.00016560,-0.00005482,-0.00001951,-0.00004163,-0.00008942,-0.0871471
 9,-0.29727223,-0.04562258,0.09533203,0.31791155,0.00000274,-0.00000150
 ,-0.00000289,-0.00000049,0.00000723,0.00000400,-0.00001291,-0.00000931
 ,-0.00000391,0.00000204,0.00001531,0.00001009,-0.00000822,-0.00000049,
 -0.00000328,-0.00000437,0.00000251,0.00000637,0.00001829,0.00000489,0.
 00000123,-0.00001675,0.00000441,0.00002350,0.00002251,-0.00001221,-0.0
 0001340,-0.00000692,-0.00001057,0.00001780,0.00001260,-0.00000644,0.00
 003267,0.00004046,-0.00000371,0.00002215,-0.00002201,-0.00002384,-0.00
 002484,0.00000546,0.00000256,-0.00001327,-0.00001235,0.00001290,-0.000
 00856,-0.00000019,0.00001771,-0.00000284,-0.00000565,0.00000786,-0.000
 00078,-0.00000077,0.00000952,0.00000134,-0.00000617,-0.00000641,0.0000
 1024,-0.00001261,-0.00000097,-0.00000248,-0.00000335,0.00002246,-0.000
 00818,-0.00000777,0.00000730,-0.00000235,-0.00000449,0.00000396,0.0000
 0713,-0.00000997,0.00001191,0.00001138,-0.00000907,-0.00000153,0.00000
 345,-0.00001734,-0.00000261,0.00000091,-0.00001373,0.00000132,-0.00000
 138,-0.00001494,-0.00000184,-0.00001909,-0.00001214,0.00000593,-0.0000
 8193,0.00000796,-0.00000568,0.00000055,-0.00002506,-0.00002806,-0.0000
 2959,0.00004141,0.00005489,-0.00006550,0.00009489,-0.00003182,0.000070
 66,0.00000352,-0.00000988,-0.00001307,0.00000039,-0.00000857,-0.000002
 79,0.00000450,-0.00001786,-0.00000558,-0.00000166,-0.00002032,-0.00000
 593,-0.00000458,-0.00000132,-0.00001577,-0.00002513,0.00001274,-0.0000
 1622,0.00000993,0.00000359,-0.00001641,-0.00002571,0.00004744,-0.00010
 853,-0.00002064,0.00009427,-0.00004266,-0.00001127,-0.00002737,0.00003
 715,0.00002214,0.00002068,0.00003404,-0.00001007,-0.00000923,0.0000182
 3,-0.00000415,-0.00001770,0.00002724,-0.00002288,-0.00000937,0.0000172
 9,-0.00002128,-0.00001047,-0.00000155,0.00000436,-0.00000220,0.0000156
 5,-0.00001180,0.00000428,0.00001019,0.00000567,-0.00000564,0.00001517,
 0.00001868,-0.00000270,-0.00000010,0.00000241,0.00001686,-0.00000764,0
 .00004482,0.00001435,-0.00007931,0.00000357,-0.00008474,0.00002681,-0.
 00001631,0.00000721,0.00003281,0.00006253,-0.00007120,-0.00000783,0.00
 000891,-0.00003753,0.00000438,0.00004443,0.00012057,0.00002759,-0.0001
 3395,-0.00008454,0.00014276,0.00308548,0.01515311,0.00549668,-0.006239
 79,0.00254856,0.00508051,0.00487473,0.00056311,-0.00314254,-0.00045032
 ,-0.00000089,-0.00002282,-0.00075336,0.00033631,-0.00058107,0.00051140
 ,-0.00035952,0.00073123,0.00026478,-0.00047539,-0.00005833,0.00018209,
 -0.00010633,0.00010981,-0.00002275,-0.00012222,0.00006180,0.00000772,0
 .00004898,-0.00012774,0.00032006,0.00108234,-0.00070872,-0.00025652,0.
 00019469,0.00044001,0.00051915,-0.00023731,0.00021362,-0.03120676,-0.0
 4870307,-0.05563753,0.03466809,0.04866136,0.04893935,-0.00002997,0.000
 00392,0.00002235,0.00003108,-0.00002302,-0.00000128,0.00002934,-0.0000
 0089,0.00001787,0.00000051,-0.00001465,0.00000438,0.00001946,0.0000041
 0,-0.00002734,0.00002960,0.00001143,0.00002789,-0.00003025,0.00001607,
 -0.00002528,0.00003155,-0.00001768,-0.00003673,-0.00003420,0.00002057,
 -0.00001959,0.00009464,-0.00010122,-0.00002293,-0.00006797,-0.00005121
 ,-0.00005496,-0.00000643,0.00001871,0.00000630,-0.00002482,0.00004205,
 -0.00001047,0.00001800,-0.00001301,-0.00003713,-0.00000945,0.00002878,
 0.00001386,-0.00000996,0.00001856,-0.00001490,0.00000388,0.00001807,0.
 00001082,-0.00001367,0.00001794,-0.00000377,0.00001982,0.00000710,-0.0
 0002252,0.00002993,-0.00002238,-0.00000480,-0.00001770,0.00001137,0.00
 000966,0.00002169,-0.00000909,0.00000800,-0.00001886,0.00002940,-0.000
 00128,-0.00001853,0.00001382,0.00003077,-0.00001148,-0.00000667,0.0000
 1630,-0.00001342,-0.00000107,-0.00001558,-0.00001986,0.00000471,-0.000
 01020,-0.00002110,-0.00000726,-0.00004211,-0.00001896,0.00009805,-0.00
 001174,0.00002716,-0.00000907,0.00000510,-0.00000086,-0.00000672,-0.00
 003995,0.00005449,-0.00003337,-0.00000517,0.00001954,-0.00014039,-0.00
 006133,0.00004448,-0.00000594,-0.00003292,-0.00000423,-0.00001129,-0.0
 0000240,-0.00000435,-0.00003594,-0.00000975,-0.00000351,-0.00002181,-0
 .00000199,-0.00001435,-0.00000781,-0.00001794,0.00005288,-0.00000109,0
 .00000199,-0.00000099,-0.00006277,-0.00003300,-0.00105929,-0.00040685,
 0.00082419,-0.00004706,0.00037450,-0.00008985,0.00003951,0.00000197,0.
 00001287,0.00001446,-0.00002133,0.00005437,0.00004196,-0.00000116,-0.0
 0000448,-0.00003440,-0.00004125,0.00002724,-0.00003216,-0.00002166,0.0
 0002329,-0.00003744,-0.00000535,-0.00000396,0.00001389,-0.00001757,0.0
 0003439,0.00000016,-0.00000265,0.00001100,0.00002366,0.00004154,0.0000
 2168,-0.00000481,0.00000669,0.00002823,0.00001092,0.00011226,-0.000018
 29,-0.00002824,-0.00005897,0.00013013,0.00012503,-0.00022187,-0.000289
 38,0.00008092,0.00000277,0.00008735,-0.00048432,0.00018348,0.00014642,
 0.00001647,-0.00004137,-0.00002220,-0.00022731,-0.00007665,-0.00009931
 ,-0.00087836,-0.00043756,0.00009783,-0.00584898,-0.00466207,-0.0086667
 6,-0.00263388,0.00068167,0.00428997,0.00696430,0.00065920,-0.00587006,
 0.00018455,0.00016302,0.00040505,-0.00179336,0.00031559,-0.00138781,0.
 00078164,0.00012491,0.00106758,0.00021086,-0.00036218,-0.00008367,0.00
 012017,-0.00008055,0.00012594,0.00003594,-0.00016998,0.00008718,-0.000
 03872,-0.00000913,0.00003593,0.00015221,0.00082921,-0.00105769,0.00013
 955,0.00020793,0.00072429,0.00012430,-0.00030373,0.00041335,-0.1936239
 8,-0.02355415,-0.15498644,-0.00324303,0.00048542,-0.00545156,0.2008017
 3,0.00008814,-0.00005412,0.00003709,-0.00000306,0.00009592,-0.00011514
 ,0.00002119,0.00003763,-0.00002354,0.00006926,-0.00007734,0.00009759,-
 0.00010774,0.00001573,-0.00001124,-0.00014818,0.00001386,-0.00001231,-
 0.00009977,0.00011885,-0.00001639,0.00004778,0.00003602,-0.00003166,0.
 00010399,0.00001742,-0.00008152,0.00011567,-0.00009332,-0.00011281,0.0
 0017265,0.00003074,0.00028252,-0.00004846,-0.00000444,0.00011434,-0.00
 000338,-0.00013772,0.00001001,0.00004518,-0.00001868,-0.00000483,0.000
 00506,-0.00002901,-0.00002385,0.00003213,0.00005209,-0.00005668,0.0001
 0181,-0.00007735,-0.00000239,-0.00012987,0.00003639,0.00001521,-0.0000
 5145,-0.00009384,0.00003919,0.00001141,-0.00009889,0.00003830,-0.00003
 369,0.00005703,0.00010745,0.00002552,-0.00010815,-0.00003058,-0.000073
 91,0.00005268,0.00009446,0.00000481,0.00000710,0.00000712,0.00004366,-
 0.00011246,-0.00004210,0.00007088,-0.00005790,0.00005255,0.00011996,0.
 00011772,0.00002546,-0.00010476,0.00002474,-0.00012355,0.00002539,-0.0
 0008459,-0.00016927,-0.00002771,0.00008518,0.00003502,0.00000533,0.000
 10198,0.00012001,0.00003969,-0.00022579,-0.00020333,-0.00018438,0.0000
 5563,0.00004739,0.00000212,0.00009635,-0.00008508,-0.00000406,0.000166
 47,-0.00005638,0.00000219,0.00015609,-0.00008254,0.00002771,-0.0000945
 7,-0.00002176,-0.00005279,0.00004988,0.00015312,0.00005252,0.00014834,
 0.00004613,0.00005106,0.00003214,-0.00012398,-0.00029342,-0.00024941,0
 .00030405,0.00002505,0.00009524,0.00012392,0.00001821,-0.00006571,-0.0
 0012191,0.00003783,-0.00004805,0.00009444,0.00003715,0.00005596,-0.000
 11386,-0.00010072,-0.00014250,0.00002665,-0.00002395,-0.00006640,0.000
 16775,0.00003598,-0.00000045,-0.00006911,0.00012315,0.00001524,-0.0000
 4952,-0.00002077,-0.00000526,-0.00016326,0.00002670,-0.00009968,0.0000
 4047,0.00012185,0.00002565,-0.00010259,-0.00007058,0.00011496,0.000047
 14,0.00007623,-0.00005313,0.00012968,-0.00006799,0.00002613,-0.0001836
 1,-0.00001139,-0.00002269,-0.00007727,-0.00023719,0.00002895,0.0000935
 6,-0.00003866,-0.00007767,0.00006288,-0.00004640,-0.00015291,0.0001533
 0,-0.00050288,0.00026620,-0.00011418,0.01857765,0.00689260,0.01787908,
 0.00080294,0.00081555,-0.00024739,-0.00047883,-0.00327217,0.00198237,0
 .00017608,0.00028331,0.00008457,0.00072057,0.00013653,0.00062998,0.000
 39304,0.00024110,0.00036097,-0.00007206,0.00019491,0.00008704,0.000004
 39,0.00001966,-0.00004893,0.00002968,0.00011104,-0.00009724,0.00006838
 ,0.00003191,-0.00004645,0.00027732,-0.00099807,-0.00004379,0.00054327,
 -0.00111533,-0.00054264,-0.00020208,0.00019392,-0.00013034,-0.02823094
 ,-0.06212388,-0.02235233,-0.01845514,0.00036306,-0.01855080,0.02654563
 ,0.05834358,0.00021272,-0.00013257,0.00015545,0.00000890,0.00019120,-0
 .00026198,-0.00000384,0.00008438,-0.00011898,0.00017906,-0.00014454,0.
 00021199,-0.00026837,-0.00000017,-0.00002787,-0.00036180,0.00007550,0.
 00001615,-0.00024677,0.00032835,-0.00006388,0.00007790,0.00008147,-0.0
 0000292,0.00035893,-0.00001702,-0.00024501,0.00006729,-0.00003880,0.00
 017273,0.00002284,-0.00003815,0.00032505,-0.00003628,0.00004611,0.0003
 2510,-0.00005625,-0.00033081,-0.00005857,0.00014802,-0.00003101,-0.000
 05952,-0.00003508,0.00000690,-0.00008536,0.00005821,0.00019423,-0.0001
 6985,0.00025304,-0.00019868,0.00002512,-0.00033433,0.00012746,-0.00000
 269,-0.00011085,-0.00024736,0.00011260,-0.00006235,-0.00023023,0.00008
 153,-0.00011980,0.00021028,0.00029674,0.00008869,-0.00023543,-0.000126
 76,-0.00022492,0.00017469,0.00025677,0.00000965,0.00005586,0.00005964,
 0.00008750,-0.00031711,-0.00006607,0.00010041,-0.00013061,0.00013533,0
 .00023399,0.00029562,0.00008816,-0.00028547,0.00003759,-0.00040479,-0.
 00001324,0.00005329,-0.00073124,-0.00004339,0.00008054,0.00026743,0.00
 011937,0.00030618,0.00034081,0.00010529,-0.00068642,-0.00041674,-0.000
 42088,-0.00013957,0.00015769,0.00012100,0.00039362,-0.00038841,0.00000
 606,0.00043671,-0.00013540,0.00000139,0.00032956,-0.00023935,0.0000753
 9,-0.00028611,-0.00009828,-0.00022789,0.00005449,0.00036592,0.00017468
 ,0.00040226,0.00008425,0.00002871,0.00000282,-0.00037371,-0.00006523,-
 0.00008758,-0.00039775,0.00014436,0.00067044,0.00029026,0.00005506,-0.
 00021433,-0.00049334,0.00009019,-0.00013484,0.00038932,0.00012038,0.00
 013703,-0.00024341,-0.00032136,-0.00047166,0.00018723,-0.00017453,-0.0
 0015613,0.00050084,-0.00004505,-0.00004667,-0.00018956,0.00038480,0.00
 004986,-0.00010548,-0.00007670,-0.00001715,-0.00038123,0.00006299,-0.0
 0024278,0.00015342,0.00037462,0.00008207,-0.00027725,-0.00016828,0.000
 52665,0.00022350,0.00016815,-0.00017591,0.00026364,-0.00004734,-0.0003
 7105,-0.00046392,0.00006835,-0.00002657,0.00010970,0.00003368,-0.00016
 870,0.00017167,-0.00014823,-0.00045092,-0.00000379,0.00032726,0.000214
 48,0.00035484,-0.00039343,0.00001222,0.00039942,-0.01135987,-0.0009844
 6,-0.00822794,0.00252388,-0.00335446,-0.00470920,-0.00659494,0.0034785
 7,0.00623511,0.00032895,-0.00011759,0.00015826,0.00113724,-0.00004367,
 0.00072176,-0.00137156,0.00017754,-0.00198422,-0.00004158,0.00055555,0
 .00020447,-0.00003588,0.00014516,-0.00008314,0.00009765,-0.00000005,0.
 00005093,-0.00002321,0.00002919,0.00010960,0.00065838,-0.00120064,0.00
 098433,-0.00030821,-0.00060339,0.00000563,0.00009062,-0.00007591,-0.00
 006726,-0.15275809,-0.01939472,-0.17977989,-0.00219549,0.00060049,-0.0
 0081943,0.16977497,0.02089536,0.18731183\\0.00000129,0.00000008,-0.000
 00227,-0.00000088,0.00000049,-0.00000103,0.00000027,0.,-0.00000173,0.0
 0000207,-0.00000099,0.00000063,-0.00000037,0.00000001,-0.00000162,0.00
 000088,0.00000094,-0.00000155,0.00000020,0.00000072,-0.00000078,0.0000
 0082,0.00000086,-0.00000084,0.00000149,-0.00000072,0.00000031,-0.00000
 053,0.00000110,0.00000035,0.00000143,-0.00000057,-0.00000091,0.0000006
 2,0.00000002,-0.00000190,0.00000085,0.00000052,0.00000078,0.00000010,0
 .00000042,-0.00000216,0.00000144,0.00000051,-0.00000038,-0.00000008,0.
 00000090,-0.00000194,0.00000026,0.00000050,-0.00000098,-0.00000039,0.0
 0000062,-0.00000110,0.00000012,0.00000029,-0.00000051,-0.00000093,0.00
 000068,-0.00000124,0.00000012,0.00000196,0.00000061,-0.00000035,0.0000
 0051,-0.00000133,-0.00000158,0.00000108,-0.00000068,0.00000045,0.00000
 201,-0.00000132,-0.00000045,0.00000041,-0.00000132,-0.00000028,0.00000
 031,-0.00000014,-0.00000006,0.00000039,-0.00000060,0.00000087,-0.00000
 092,-0.00000052,0.00000048,-0.00000032,0.00000080,0.00000073,-0.000000
 24,-0.00000028,-0.00000057,0.,-0.00000026,0.00000080,0.00000091,-0.000
 00002,-0.00000102,0.00000030,0.00000038,-0.00000090,-0.00000088,0.0000
 0125,0.00000072,-0.00000017,0.00000002,-0.00000002,0.00000084,-0.00000
 129,-0.00000159,-0.00000073,0.00000059,0.00000006,0.00000045,0.0000007
 7,0.00000070,-0.00000111,-0.00000143,-0.00000029,-0.00000058,0.0000005
 0,-0.00000315,0.00000018,-0.00000144,0.00000152,-0.00000134,0.00000245
 ,-0.00000165,0.00000077,-0.00000180,0.00000029,0.00000012,0.00000116,-
 0.00000213,0.00000121,-0.00000179,-0.00000018,0.00000092,0.00000123,-0
 .00000102,0.00000074,-0.00000115,-0.00000070,0.00000141,-0.00000012,-0
 .00000129,0.00000082,0.00000015,-0.00000080,0.00000120,-0.00000153,-0.
 00000060,0.00000099,0.00000188,-0.00000160,-0.00000084,-0.00000148,0.0
 0000105,0.00000171,0.00000156,-0.00000120,-0.00000032,-0.00000002,0.00
 000184,-0.00000119,0.00000037,0.00000250,-0.00000057,0.00000033,0.0000
 0029,-0.00000228,-0.00000112,-0.00000154,0.00000034,0.00000159,-0.0000
 0359,-0.00000370,0.00000066,0.00000462,0.00000323,0.00000190,0.0000005
 6,-0.00000195,0.00000386,0.00000072,0.00000030,-0.00000126,-0.00000030
 ,-0.00000123,-0.00000019,0.00000020,-0.00000088,0.00000126,-0.00000060
 ,-0.00000041,0.00000155,0.00000003,-0.00000095,0.00000238,0.00000026,-
 0.00000179,0.00000222,-0.00000081,-0.00000036,0.00000169,-0.00000080,-
 0.00000053,0.00000170,-0.00000072,-0.00000038,0.00000134,0.00000125,-0
 .00000062,0.00000265,0.00000034,-0.00000140,0.00000067,0.00000013,-0.0
 0000092,0.00000129,-0.00000127,0.00000069,-0.00000025,0.00000102,-0.00
 000140,0.00000114,0.00000086,-0.00000219,0.00000030\\\@


 OF ALL THE WONDERS OF THE UNIVERSE, THE GREATEST IS MAN.

                                    -- ARISTOTLE
 Job cpu time:       0 days  0 hours  0 minutes  0.7 seconds.
 Elapsed time:       0 days 18 hours  7 minutes 17.2 seconds.
 File lengths (MBytes):  RWF=     22 Int=      0 D2E=      0 Chk=      3 Scr=      2
 Normal termination of Gaussian 16 at Sat Mar  9 13:58:35 2024.
