 Entering Gaussian System, Link 0=/mlatom/software/Gaussian/g16-avx2/g16
 Input=gaussian.com
 Output=gaussian.log
 Initial command:
 /mlatom/software/Gaussian/g16-avx2/l1.exe "/mlatom/home/huangyh/projects/delta_learning/paper/revision1/Starting_from_ub3lyp_d4/c60/ADL/r/Gau-68172.inp" -scrdir="/mlatom/home/huangyh/projects/delta_learning/paper/revision1/Starting_from_ub3lyp_d4/c60/ADL/r/"
 Entering Link 1 = /mlatom/software/Gaussian/g16-avx2/l1.exe PID=     68173.
  
 Copyright (c) 1988,1990,1992,1993,1995,1998,2003,2009,2016,
            Gaussian, Inc.  All Rights Reserved.
  
 This is part of the Gaussian(R) 16 program.  It is based on
 the Gaussian(R) 09 system (copyright 2009, Gaussian, Inc.),
 the Gaussian(R) 03 system (copyright 2003, Gaussian, Inc.),
 the Gaussian(R) 98 system (copyright 1998, Gaussian, Inc.),
 the Gaussian(R) 94 system (copyright 1995, Gaussian, Inc.),
 the Gaussian 92(TM) system (copyright 1992, Gaussian, Inc.),
 the Gaussian 90(TM) system (copyright 1990, Gaussian, Inc.),
 the Gaussian 88(TM) system (copyright 1988, Gaussian, Inc.),
 the Gaussian 86(TM) system (copyright 1986, Carnegie Mellon
 University), and the Gaussian 82(TM) system (copyright 1983,
 Carnegie Mellon University). Gaussian is a federally registered
 trademark of Gaussian, Inc.
  
 This software contains proprietary and confidential information,
 including trade secrets, belonging to Gaussian, Inc.
  
 This software is provided under written license and may be
 used, copied, transmitted, or stored only in accord with that
 written license.
  
 The following legend is applicable only to US Government
 contracts under FAR:
  
                    RESTRICTED RIGHTS LEGEND
  
 Use, reproduction and disclosure by the US Government is
 subject to restrictions as set forth in subparagraphs (a)
 and (c) of the Commercial Computer Software - Restricted
 Rights clause in FAR 52.227-19.
  
 Gaussian, Inc.
 340 Quinnipiac St., Bldg. 40, Wallingford CT 06492
  
  
 ---------------------------------------------------------------
 Warning -- This program may not be used in any manner that
 competes with the business of Gaussian, Inc. or will provide
 assistance to any competitor of Gaussian, Inc.  The licensee
 of this program is prohibited from giving any competitor of
 Gaussian, Inc. access to this program.  By using this program,
 the user acknowledges that Gaussian, Inc. is engaged in the
 business of creating and licensing software in the field of
 computational chemistry and represents and warrants to the
 licensee that it is not a competitor of Gaussian, Inc. and that
 it will not use this program in any manner prohibited above.
 ---------------------------------------------------------------
  

 Cite this work as:
 Gaussian 16, Revision A.03,
 M. J. Frisch, G. W. Trucks, H. B. Schlegel, G. E. Scuseria, 
 M. A. Robb, J. R. Cheeseman, G. Scalmani, V. Barone, 
 G. A. Petersson, H. Nakatsuji, X. Li, M. Caricato, A. V. Marenich, 
 J. Bloino, B. G. Janesko, R. Gomperts, B. Mennucci, H. P. Hratchian, 
 J. V. Ortiz, A. F. Izmaylov, J. L. Sonnenberg, D. Williams-Young, 
 F. Ding, F. Lipparini, F. Egidi, J. Goings, B. Peng, A. Petrone, 
 T. Henderson, D. Ranasinghe, V. G. Zakrzewski, J. Gao, N. Rega, 
 G. Zheng, W. Liang, M. Hada, M. Ehara, K. Toyota, R. Fukuda, 
 J. Hasegawa, M. Ishida, T. Nakajima, Y. Honda, O. Kitao, H. Nakai, 
 T. Vreven, K. Throssell, J. A. Montgomery, Jr., J. E. Peralta, 
 F. Ogliaro, M. J. Bearpark, J. J. Heyd, E. N. Brothers, K. N. Kudin, 
 V. N. Staroverov, T. A. Keith, R. Kobayashi, J. Normand, 
 K. Raghavachari, A. P. Rendell, J. C. Burant, S. S. Iyengar, 
 J. Tomasi, M. Cossi, J. M. Millam, M. Klene, C. Adamo, R. Cammi, 
 J. W. Ochterski, R. L. Martin, K. Morokuma, O. Farkas, 
 J. B. Foresman, and D. J. Fox, Gaussian, Inc., Wallingford CT, 2016.
 
 ******************************************
 Gaussian 16:  ES64L-G16RevA.03 25-Dec-2016
                27-May-2025 
 ******************************************
 %nproc=1
 Will use up to    1 processors via shared memory.
 ----------------------------------------------------------------------
 #p Freq external='/mlatom/software/miniconda3/bin/python /mlatom/softw
 are/mlatom_xacs/mlatom/interfaces/gaussian_interface.py model_predict_
 kwargs'
 ----------------------------------------------------------------------
 1/10=4,18=10,30=1,38=1/1,3;
 2/12=2,17=6,18=5,40=1/2;
 3/11=9,25=1,30=1,41=9900000,43=2,71=2,140=1/1;
 4/20=17,22=2,24=3,113=1,114=1/2;
 6/7=2,8=2,9=2,10=2/1;
 7/8=1,25=1,44=-1/16;
 1/10=4,18=10,30=1/3;
 99//99;
 Leave Link    1 at Tue May 27 11:40:57 2025, MaxMem=           0 cpu:               0.1 elap:               0.1
 (Enter /mlatom/software/Gaussian/g16-avx2/l101.exe)
 ------------------------------------
 f629342b-c50c-4870-8d01-665313b57ea1
 ------------------------------------
 Symbolic Z-matrix:
 Charge =  0 Multiplicity = 1
 C                    -1.50547   3.45369   0.38836 
 C                    -0.24462   3.49291  -0.32643 
 C                    -0.18484   3.07778  -1.65434 
 C                    -1.38276   2.60673  -2.32195 
 C                    -2.59333   2.5695   -1.63535 
 C                    -2.65595   3.00169  -0.25272 
 C                    -1.23315   3.05494   1.7555 
 C                     0.19617   2.84784   1.88586 
 C                     0.80799   3.11807   0.59899 
 C                     1.87911   2.34349   0.16101 
 C                     0.92911   2.26974  -2.11076 
 C                    -1.009     1.50825  -3.19189 
 C                    -1.86037   0.41656  -3.34069 
 C                    -3.12116   0.3782   -2.62558 
 C                    -3.4802    1.43274  -1.79033 
 C                    -4.09118   1.16255  -0.50342 
 C                    -3.58178   2.13222   0.44682 
 C                    -3.32039   1.74939   1.75962 
 C                    -2.12232   2.22013   2.42717 
 C                     0.67916   1.81338   2.68313 
 C                    -0.24706   0.94345   3.38207 
 C                    -1.61921   1.14275   3.25686 
 C                    -2.5061    0.00605   3.10195 
 C                    -3.5576    0.381     2.17664 
 C                    -4.04666  -0.5501    1.26427 
 C                    -4.31891  -0.15137  -0.10302 
 C                    -3.94494  -1.24959  -0.97288 
 C                    -3.35817  -0.99017  -2.20853 
 C                     0.41953   1.29996  -3.06201 
 C                    -0.33077  -3.04001  -1.73947 
 C                     0.559    -2.20528  -2.4109 
 C                     1.75701  -1.73558  -1.74478 
 C                     2.01583  -2.11574  -0.43073 
 C                     1.09159  -2.9865    0.26829 
 C                    -1.31982  -3.47701   0.34283 
 C                    -2.37124  -3.10198  -0.58241 
 C                    -1.76003  -2.83167  -1.86919 
 C                    -2.24369  -1.79734  -2.66569 
 C                    -1.31797  -0.92801  -3.36537 
 C                     0.05435  -1.12801  -3.24042 
 C                     2.74187   0.16706   0.12001 
 C                     2.51747  -1.14414   0.51741 
 C                     1.91211  -1.41596   1.80375 
 C                     1.02772  -2.55381   1.65085 
 C                    -0.1824   -2.59068   2.33766 
 C                    -1.38046  -3.06196   1.67038 
 C                    -3.44147  -2.32701  -0.14332 
 C                    -3.50446  -1.89474   1.2393 
 C                    -2.49479  -2.2548    2.12776 
 C                    -1.9855   -1.28502   3.0779 
 C                    -0.55651  -1.49286   3.20784 
 C                     0.295    -0.40127   3.35669 
 C                     1.55556  -0.36247   2.64269 
 C                     1.79356   1.00667   2.22614 
 C                     2.37997   1.26596   0.99021 
 C                     0.9402    0.00813  -3.08643 
 C                     1.93427   1.9071   -1.2193 
 C                    -0.0587   -3.43858  -0.3724 
 C                     1.99064  -0.36733  -2.16141 
 C                     2.46709   0.56219  -1.24434 
 C                     6.30952   0.68028  -0.06269 
 C                     5.84185  -0.71427  -0.28675 
 C                     7.50466   0.88723   0.85037 
 H                     7.85709   1.92061   0.80112 
 H                     7.26133   0.68257   1.89729 
 H                     8.34191   0.23001   0.58576 
 C                     5.74747  -1.62973   0.92069 
 H                     5.18433  -2.53031   0.6584 
 H                     6.7425   -1.95774   1.24706 
 H                     5.26601  -1.14854   1.78358 
 C                     5.53963  -1.18332  -1.50186 
 H                     5.6557   -0.58918  -2.39785 
 H                     5.19513  -2.20405  -1.63825 
 C                     5.66765   1.71518  -0.61605 
 H                     5.94047   2.75271  -0.44753 
 H                     4.82285   1.54498  -1.26332 
 
 ITRead=  0  0  0  0  0  0  0  0  0  0  0  0  0  0  0  0  0  0  0  0
 ITRead=  0  0  0  0  0  0  0  0  0  0  0  0  0  0  0  0  0  0  0  0
 ITRead=  0  0  0  0  0  0  0  0  0  0  0  0  0  0  0  0  0  0  0  0
 ITRead=  0  0  0  0  0  0  0  0  0  0  0  0  0  0  0  0
 MicOpt= -1 -1 -1 -1 -1 -1 -1 -1 -1 -1 -1 -1 -1 -1 -1 -1 -1 -1 -1 -1
 MicOpt= -1 -1 -1 -1 -1 -1 -1 -1 -1 -1 -1 -1 -1 -1 -1 -1 -1 -1 -1 -1
 MicOpt= -1 -1 -1 -1 -1 -1 -1 -1 -1 -1 -1 -1 -1 -1 -1 -1 -1 -1 -1 -1
 MicOpt= -1 -1 -1 -1 -1 -1 -1 -1 -1 -1 -1 -1 -1 -1 -1 -1
 NAtoms=     76 NQM=       76 NQMF=       0 NMMI=      0 NMMIF=      0
                NMic=       0 NMicF=      0.
                    Isotopes and Nuclear Properties:
 (Nuclear quadrupole moments (NQMom) in fm**2, nuclear magnetic moments (NMagM)
  in nuclear magnetons)

  Atom         1           2           3           4           5           6           7           8           9          10
 IAtWgt=          12          12          12          12          12          12          12          12          12          12
 AtmWgt=  12.0000000  12.0000000  12.0000000  12.0000000  12.0000000  12.0000000  12.0000000  12.0000000  12.0000000  12.0000000
 NucSpn=           0           0           0           0           0           0           0           0           0           0
 AtZEff=  -0.0000000  -0.0000000  -0.0000000  -0.0000000  -0.0000000  -0.0000000  -0.0000000  -0.0000000  -0.0000000  -0.0000000
 NQMom=    0.0000000   0.0000000   0.0000000   0.0000000   0.0000000   0.0000000   0.0000000   0.0000000   0.0000000   0.0000000
 NMagM=    0.0000000   0.0000000   0.0000000   0.0000000   0.0000000   0.0000000   0.0000000   0.0000000   0.0000000   0.0000000
 AtZNuc=   6.0000000   6.0000000   6.0000000   6.0000000   6.0000000   6.0000000   6.0000000   6.0000000   6.0000000   6.0000000

  Atom        11          12          13          14          15          16          17          18          19          20
 IAtWgt=          12          12          12          12          12          12          12          12          12          12
 AtmWgt=  12.0000000  12.0000000  12.0000000  12.0000000  12.0000000  12.0000000  12.0000000  12.0000000  12.0000000  12.0000000
 NucSpn=           0           0           0           0           0           0           0           0           0           0
 AtZEff=  -0.0000000  -0.0000000  -0.0000000  -0.0000000  -0.0000000  -0.0000000  -0.0000000  -0.0000000  -0.0000000  -0.0000000
 NQMom=    0.0000000   0.0000000   0.0000000   0.0000000   0.0000000   0.0000000   0.0000000   0.0000000   0.0000000   0.0000000
 NMagM=    0.0000000   0.0000000   0.0000000   0.0000000   0.0000000   0.0000000   0.0000000   0.0000000   0.0000000   0.0000000
 AtZNuc=   6.0000000   6.0000000   6.0000000   6.0000000   6.0000000   6.0000000   6.0000000   6.0000000   6.0000000   6.0000000

  Atom        21          22          23          24          25          26          27          28          29          30
 IAtWgt=          12          12          12          12          12          12          12          12          12          12
 AtmWgt=  12.0000000  12.0000000  12.0000000  12.0000000  12.0000000  12.0000000  12.0000000  12.0000000  12.0000000  12.0000000
 NucSpn=           0           0           0           0           0           0           0           0           0           0
 AtZEff=  -0.0000000  -0.0000000  -0.0000000  -0.0000000  -0.0000000  -0.0000000  -0.0000000  -0.0000000  -0.0000000  -0.0000000
 NQMom=    0.0000000   0.0000000   0.0000000   0.0000000   0.0000000   0.0000000   0.0000000   0.0000000   0.0000000   0.0000000
 NMagM=    0.0000000   0.0000000   0.0000000   0.0000000   0.0000000   0.0000000   0.0000000   0.0000000   0.0000000   0.0000000
 AtZNuc=   6.0000000   6.0000000   6.0000000   6.0000000   6.0000000   6.0000000   6.0000000   6.0000000   6.0000000   6.0000000

  Atom        31          32          33          34          35          36          37          38          39          40
 IAtWgt=          12          12          12          12          12          12          12          12          12          12
 AtmWgt=  12.0000000  12.0000000  12.0000000  12.0000000  12.0000000  12.0000000  12.0000000  12.0000000  12.0000000  12.0000000
 NucSpn=           0           0           0           0           0           0           0           0           0           0
 AtZEff=  -0.0000000  -0.0000000  -0.0000000  -0.0000000  -0.0000000  -0.0000000  -0.0000000  -0.0000000  -0.0000000  -0.0000000
 NQMom=    0.0000000   0.0000000   0.0000000   0.0000000   0.0000000   0.0000000   0.0000000   0.0000000   0.0000000   0.0000000
 NMagM=    0.0000000   0.0000000   0.0000000   0.0000000   0.0000000   0.0000000   0.0000000   0.0000000   0.0000000   0.0000000
 AtZNuc=   6.0000000   6.0000000   6.0000000   6.0000000   6.0000000   6.0000000   6.0000000   6.0000000   6.0000000   6.0000000

  Atom        41          42          43          44          45          46          47          48          49          50
 IAtWgt=          12          12          12          12          12          12          12          12          12          12
 AtmWgt=  12.0000000  12.0000000  12.0000000  12.0000000  12.0000000  12.0000000  12.0000000  12.0000000  12.0000000  12.0000000
 NucSpn=           0           0           0           0           0           0           0           0           0           0
 AtZEff=  -0.0000000  -0.0000000  -0.0000000  -0.0000000  -0.0000000  -0.0000000  -0.0000000  -0.0000000  -0.0000000  -0.0000000
 NQMom=    0.0000000   0.0000000   0.0000000   0.0000000   0.0000000   0.0000000   0.0000000   0.0000000   0.0000000   0.0000000
 NMagM=    0.0000000   0.0000000   0.0000000   0.0000000   0.0000000   0.0000000   0.0000000   0.0000000   0.0000000   0.0000000
 AtZNuc=   6.0000000   6.0000000   6.0000000   6.0000000   6.0000000   6.0000000   6.0000000   6.0000000   6.0000000   6.0000000

  Atom        51          52          53          54          55          56          57          58          59          60
 IAtWgt=          12          12          12          12          12          12          12          12          12          12
 AtmWgt=  12.0000000  12.0000000  12.0000000  12.0000000  12.0000000  12.0000000  12.0000000  12.0000000  12.0000000  12.0000000
 NucSpn=           0           0           0           0           0           0           0           0           0           0
 AtZEff=  -0.0000000  -0.0000000  -0.0000000  -0.0000000  -0.0000000  -0.0000000  -0.0000000  -0.0000000  -0.0000000  -0.0000000
 NQMom=    0.0000000   0.0000000   0.0000000   0.0000000   0.0000000   0.0000000   0.0000000   0.0000000   0.0000000   0.0000000
 NMagM=    0.0000000   0.0000000   0.0000000   0.0000000   0.0000000   0.0000000   0.0000000   0.0000000   0.0000000   0.0000000
 AtZNuc=   6.0000000   6.0000000   6.0000000   6.0000000   6.0000000   6.0000000   6.0000000   6.0000000   6.0000000   6.0000000

  Atom        61          62          63          64          65          66          67          68          69          70
 IAtWgt=          12          12          12           1           1           1          12           1           1           1
 AtmWgt=  12.0000000  12.0000000  12.0000000   1.0078250   1.0078250   1.0078250  12.0000000   1.0078250   1.0078250   1.0078250
 NucSpn=           0           0           0           1           1           1           0           1           1           1
 AtZEff=  -0.0000000  -0.0000000  -0.0000000  -0.0000000  -0.0000000  -0.0000000  -0.0000000  -0.0000000  -0.0000000  -0.0000000
 NQMom=    0.0000000   0.0000000   0.0000000   0.0000000   0.0000000   0.0000000   0.0000000   0.0000000   0.0000000   0.0000000
 NMagM=    0.0000000   0.0000000   0.0000000   2.7928460   2.7928460   2.7928460   0.0000000   2.7928460   2.7928460   2.7928460
 AtZNuc=   6.0000000   6.0000000   6.0000000   1.0000000   1.0000000   1.0000000   6.0000000   1.0000000   1.0000000   1.0000000

  Atom        71          72          73          74          75          76
 IAtWgt=          12           1           1          12           1           1
 AtmWgt=  12.0000000   1.0078250   1.0078250  12.0000000   1.0078250   1.0078250
 NucSpn=           0           1           1           0           1           1
 AtZEff=  -0.0000000  -0.0000000  -0.0000000  -0.0000000  -0.0000000  -0.0000000
 NQMom=    0.0000000   0.0000000   0.0000000   0.0000000   0.0000000   0.0000000
 NMagM=    0.0000000   2.7928460   2.7928460   0.0000000   2.7928460   2.7928460
 AtZNuc=   6.0000000   1.0000000   1.0000000   6.0000000   1.0000000   1.0000000
 Leave Link  101 at Tue May 27 11:40:58 2025, MaxMem=   104857600 cpu:               0.3 elap:               0.3
 (Enter /mlatom/software/Gaussian/g16-avx2/l103.exe)

 GradGradGradGradGradGradGradGradGradGradGradGradGradGradGradGradGradGrad
 Berny optimization.
 Initialization pass.
 Trust Radius=3.00D-01 FncErr=1.00D-07 GrdErr=1.00D-07 EigMax=2.50D+02 EigMin=1.00D-04
 Number of steps in this run=      2 maximum allowed number of steps=      2.
 GradGradGradGradGradGradGradGradGradGradGradGradGradGradGradGradGradGrad

 Leave Link  103 at Tue May 27 11:40:58 2025, MaxMem=   104857600 cpu:               0.1 elap:               0.1
 (Enter /mlatom/software/Gaussian/g16-avx2/l202.exe)
 Stoichiometry    C66H10
 Framework group  C1[X(C66H10)]
 Deg. of freedom   222
 Full point group                 C1      NOp   1
 Largest Abelian subgroup         C1      NOp   1
 Largest concise Abelian subgroup C1      NOp   1
                         Standard orientation:                         
 ---------------------------------------------------------------------
 Center     Atomic      Atomic             Coordinates (Angstroms)
 Number     Number       Type             X           Y           Z
 ---------------------------------------------------------------------
      1          6           0       -1.505471    3.453693    0.388360
      2          6           0       -0.244621    3.492912   -0.326426
      3          6           0       -0.184845    3.077779   -1.654335
      4          6           0       -1.382765    2.606735   -2.321946
      5          6           0       -2.593329    2.569503   -1.635351
      6          6           0       -2.655946    3.001693   -0.252718
      7          6           0       -1.233145    3.054942    1.755502
      8          6           0        0.196167    2.847839    1.885857
      9          6           0        0.807987    3.118067    0.598994
     10          6           0        1.879109    2.343488    0.161010
     11          6           0        0.929112    2.269739   -2.110763
     12          6           0       -1.009004    1.508249   -3.191888
     13          6           0       -1.860367    0.416555   -3.340690
     14          6           0       -3.121158    0.378195   -2.625577
     15          6           0       -3.480204    1.432738   -1.790332
     16          6           0       -4.091182    1.162546   -0.503420
     17          6           0       -3.581779    2.132223    0.446821
     18          6           0       -3.320389    1.749389    1.759624
     19          6           0       -2.122317    2.220127    2.427166
     20          6           0        0.679163    1.813378    2.683130
     21          6           0       -0.247062    0.943448    3.382074
     22          6           0       -1.619214    1.142750    3.256855
     23          6           0       -2.506105    0.006053    3.101947
     24          6           0       -3.557600    0.380997    2.176643
     25          6           0       -4.046663   -0.550096    1.264265
     26          6           0       -4.318909   -0.151372   -0.103020
     27          6           0       -3.944939   -1.249595   -0.972880
     28          6           0       -3.358166   -0.990174   -2.208527
     29          6           0        0.419533    1.299961   -3.062006
     30          6           0       -0.330769   -3.040008   -1.739466
     31          6           0        0.558997   -2.205281   -2.410904
     32          6           0        1.757009   -1.735578   -1.744775
     33          6           0        2.015828   -2.115735   -0.430730
     34          6           0        1.091590   -2.986500    0.268287
     35          6           0       -1.319818   -3.477008    0.342831
     36          6           0       -2.371241   -3.101982   -0.582414
     37          6           0       -1.760033   -2.831668   -1.869188
     38          6           0       -2.243687   -1.797340   -2.665690
     39          6           0       -1.317970   -0.928014   -3.365371
     40          6           0        0.054352   -1.128013   -3.240419
     41          6           0        2.741875    0.167062    0.120014
     42          6           0        2.517472   -1.144139    0.517407
     43          6           0        1.912106   -1.415961    1.803745
     44          6           0        1.027715   -2.553805    1.650847
     45          6           0       -0.182402   -2.590678    2.337661
     46          6           0       -1.380457   -3.061961    1.670380
     47          6           0       -3.441466   -2.327015   -0.143315
     48          6           0       -3.504460   -1.894738    1.239300
     49          6           0       -2.494793   -2.254797    2.127757
     50          6           0       -1.985495   -1.285024    3.077899
     51          6           0       -0.556511   -1.492858    3.207841
     52          6           0        0.295001   -0.401274    3.356687
     53          6           0        1.555561   -0.362475    2.642691
     54          6           0        1.793561    1.006672    2.226138
     55          6           0        2.379975    1.265958    0.990214
     56          6           0        0.940204    0.008130   -3.086426
     57          6           0        1.934268    1.907104   -1.219298
     58          6           0       -0.058699   -3.438584   -0.372398
     59          6           0        1.990644   -0.367328   -2.161410
     60          6           0        2.467087    0.562193   -1.244344
     61          6           0        6.309516    0.680284   -0.062693
     62          6           0        5.841852   -0.714274   -0.286752
     63          6           0        7.504660    0.887231    0.850366
     64          1           0        7.857088    1.920613    0.801118
     65          1           0        7.261325    0.682567    1.897288
     66          1           0        8.341911    0.230010    0.585763
     67          6           0        5.747470   -1.629734    0.920687
     68          1           0        5.184333   -2.530306    0.658396
     69          1           0        6.742499   -1.957742    1.247062
     70          1           0        5.266011   -1.148543    1.783583
     71          6           0        5.539627   -1.183318   -1.501859
     72          1           0        5.655705   -0.589180   -2.397847
     73          1           0        5.195126   -2.204049   -1.638250
     74          6           0        5.667651    1.715184   -0.616046
     75          1           0        5.940467    2.752710   -0.447535
     76          1           0        4.822850    1.544980   -1.263315
 ---------------------------------------------------------------------
 Rotational constants (GHZ):           0.0811382           0.0524053           0.0520535
 Leave Link  202 at Tue May 27 11:40:58 2025, MaxMem=   104857600 cpu:               0.0 elap:               0.1
 (Enter /mlatom/software/Gaussian/g16-avx2/l301.exe)
 Standard basis: STO-3G (5D, 7F)
 Ernie: Thresh=  0.10000D-02 Tol=  0.10000D-05 Strict=F.
 There are   340 symmetry adapted cartesian basis functions of A   symmetry.
 There are   340 symmetry adapted basis functions of A   symmetry.
   340 basis functions,  1020 primitive gaussians,   340 cartesian basis functions
   203 alpha electrons      203 beta electrons
       nuclear repulsion energy      9814.9404415358 Hartrees.
 IExCor=    0 DFT=F Ex=HF Corr=None ExCW=0 ScaHFX=  1.000000
 ScaDFX=  1.000000  1.000000  1.000000  1.000000 ScalE2=  1.000000  1.000000
 IRadAn=      5 IRanWt=     -1 IRanGd=            0 ICorTp=0 IEmpDi=  4
 NAtoms=   76 NActive=   76 NUniq=   76 SFac= 1.00D+00 NAtFMM=   60 NAOKFM=T Big=T
 Integral buffers will be    131072 words long.
 Raffenetti 1 integral format.
 Two-electron integral symmetry is turned on.
 Leave Link  301 at Tue May 27 11:40:59 2025, MaxMem=   104857600 cpu:               0.1 elap:               0.4
 (Enter /mlatom/software/Gaussian/g16-avx2/l402.exe)
 External calculation of energy, first and second derivatives.
 Running external command "/mlatom/software/miniconda3/bin/python /mlatom/software/mlatom_xacs/mlatom/interfaces/gaussian_interface.py model_predict_kwargs R"
         input file       "/mlatom/home/huangyh/projects/delta_learning/paper/revision1/Starting_from_ub3lyp_d4/c60/ADL/r/Gau-68173.EIn"
         output file      "/mlatom/home/huangyh/projects/delta_learning/paper/revision1/Starting_from_ub3lyp_d4/c60/ADL/r/Gau-68173.EOu"
         message file     "/mlatom/home/huangyh/projects/delta_learning/paper/revision1/Starting_from_ub3lyp_d4/c60/ADL/r/Gau-68173.EMs"
         fchk file        "/mlatom/home/huangyh/projects/delta_learning/paper/revision1/Starting_from_ub3lyp_d4/c60/ADL/r/Gau-68173.EFC"
         mat. el file     "/mlatom/home/huangyh/projects/delta_learning/paper/revision1/Starting_from_ub3lyp_d4/c60/ADL/r/Gau-68173.EUF"
model loaded from /mlatom/home/huangyh/projects/delta_learning/paper/revision1/Starting_from_ub3lyp_d4/c60/ADL/ADL_main_model_C60_butadiene.npz
 Recovered energy= -2521.18036989     dipole=      0.693851409052     -0.195701679476      0.648102964499
 Energy=    -2521.18037     NIter=   0.
 Dipole moment=       0.693851      -0.195702       0.648103
 Leave Link  402 at Tue May 27 11:49:53 2025, MaxMem=   104857600 cpu:               0.1 elap:             534.3
 (Enter /mlatom/software/Gaussian/g16-avx2/l601.exe)
 Leave Link  601 at Tue May 27 11:49:53 2025, MaxMem=   104857600 cpu:               0.1 elap:               0.1
 (Enter /mlatom/software/Gaussian/g16-avx2/l716.exe)
 Dipole        = 6.93851409D-01-1.95701679D-01 6.48102964D-01
 Full mass-weighted force constant matrix:
 Low frequencies ---  -43.3457  -32.7573  -32.4559   -0.0524   -0.0265    0.0251
 Low frequencies ---   33.1942   41.8103   48.6786
 Diagonal vibrational polarizability:
        0.0000000       0.0000000       0.0000000
 Harmonic frequencies (cm**-1), IR intensities (KM/Mole), Raman scattering
 activities (A**4/AMU), depolarization ratios for plane and unpolarized
 incident light, reduced masses (AMU), force constants (mDyne/A),
 and normal coordinates:
                      1                      2                      3
                      A                      A                      A
 Frequencies --     28.7840                40.3730                47.7049
 Red. masses --      3.9002                 5.9957                 4.6864
 Frc consts  --      0.0019                 0.0058                 0.0063
 IR Inten    --      0.0000                 0.0000                 0.0000
  Atom  AN      X      Y      Z        X      Y      Z        X      Y      Z
     1   6     0.04  -0.01   0.01    -0.03   0.00   0.00     0.04  -0.00  -0.01
     2   6     0.03  -0.02   0.01    -0.04   0.02  -0.02     0.03  -0.02  -0.03
     3   6     0.03  -0.01   0.01    -0.06   0.02  -0.02     0.01  -0.02  -0.03
     4   6     0.02   0.00   0.01    -0.06   0.01  -0.00     0.00  -0.01  -0.01
     5   6     0.02   0.01   0.01    -0.05  -0.00   0.01     0.01   0.00   0.00
     6   6     0.03   0.01   0.01    -0.04  -0.01   0.02     0.03   0.01   0.00
     7   6     0.03  -0.01   0.01    -0.01   0.00  -0.00     0.05  -0.00  -0.01
     8   6     0.03  -0.03   0.01    -0.00   0.02  -0.03     0.05  -0.01  -0.03
     9   6     0.03  -0.03   0.01    -0.03   0.03  -0.03     0.04  -0.02  -0.04
    10   6     0.02  -0.04   0.00    -0.02   0.04  -0.05     0.02  -0.03  -0.04
    11   6     0.02  -0.02   0.00    -0.05   0.04  -0.04     0.00  -0.03  -0.04
    12   6     0.01   0.00   0.00    -0.06   0.02  -0.01    -0.02  -0.02  -0.01
    13   6    -0.00   0.01   0.00    -0.05   0.01  -0.00    -0.03  -0.01  -0.00
    14   6    -0.00   0.02   0.00    -0.04  -0.01   0.02    -0.02   0.00   0.01
    15   6     0.01   0.02   0.01    -0.04  -0.01   0.03    -0.00   0.01   0.01
    16   6     0.01   0.02   0.01    -0.02  -0.02   0.03     0.01   0.02   0.02
    17   6     0.02   0.02   0.01    -0.02  -0.02   0.03     0.03   0.02   0.01
    18   6     0.02   0.01   0.01     0.01  -0.02   0.02     0.04   0.02   0.01
    19   6     0.03  -0.01   0.01     0.01  -0.01   0.01     0.05   0.01  -0.00
    20   6     0.02  -0.03   0.00     0.02   0.02  -0.03     0.05  -0.02  -0.03
    21   6     0.02  -0.03  -0.00     0.04   0.01  -0.02     0.05  -0.01  -0.02
    22   6     0.02  -0.01   0.00     0.03  -0.00  -0.00     0.05   0.01  -0.00
    23   6     0.01  -0.00   0.00     0.04  -0.01   0.01     0.04   0.01   0.01
    24   6     0.01   0.01   0.00     0.03  -0.02   0.02     0.03   0.02   0.02
    25   6    -0.00   0.02   0.00     0.02  -0.03   0.03     0.01   0.02   0.03
    26   6    -0.00   0.02   0.00     0.00  -0.03   0.03     0.00   0.02   0.03
    27   6    -0.01   0.02  -0.00     0.00  -0.02   0.03    -0.02   0.02   0.03
    28   6    -0.01   0.02  -0.00    -0.02  -0.01   0.02    -0.03   0.01   0.02
    29   6     0.01  -0.01  -0.00    -0.06   0.03  -0.03    -0.02  -0.03  -0.03
    30   6    -0.03  -0.01  -0.01     0.01   0.02  -0.03    -0.04  -0.02  -0.01
    31   6    -0.02  -0.02  -0.01    -0.01   0.03  -0.04    -0.04  -0.03  -0.02
    32   6    -0.02  -0.03  -0.01    -0.00   0.04  -0.06    -0.03  -0.04  -0.03
    33   6    -0.02  -0.04  -0.01     0.02   0.05  -0.06    -0.02  -0.04  -0.04
    34   6    -0.03  -0.03  -0.02     0.04   0.03  -0.05    -0.02  -0.03  -0.02
    35   6    -0.03  -0.01  -0.01     0.04   0.01  -0.02    -0.02  -0.00   0.00
    36   6    -0.03   0.01  -0.01     0.03  -0.00  -0.00    -0.03   0.00   0.01
    37   6    -0.03   0.01  -0.01     0.00   0.01  -0.01    -0.04  -0.01   0.01
    38   6    -0.02   0.01  -0.01    -0.02   0.00   0.00    -0.04  -0.00   0.01
    39   6    -0.01   0.01  -0.01    -0.04   0.01  -0.01    -0.04  -0.01  -0.00
    40   6    -0.02  -0.01  -0.01    -0.03   0.03  -0.03    -0.04  -0.03  -0.02
    41   6     0.00  -0.05  -0.01    -0.00   0.05  -0.07     0.00  -0.04  -0.05
    42   6    -0.01  -0.04  -0.01     0.02   0.05  -0.07    -0.00  -0.04  -0.04
    43   6    -0.01  -0.04  -0.01     0.04   0.04  -0.06     0.01  -0.03  -0.04
    44   6    -0.02  -0.03  -0.01     0.05   0.03  -0.05    -0.00  -0.02  -0.02
    45   6    -0.02  -0.03  -0.01     0.06   0.01  -0.03     0.01  -0.01  -0.01
    46   6    -0.03  -0.01  -0.01     0.06   0.00  -0.01    -0.01  -0.00   0.00
    47   6    -0.02   0.02  -0.01     0.02  -0.02   0.02    -0.02   0.01   0.02
    48   6    -0.02   0.01  -0.00     0.04  -0.02   0.02    -0.00   0.02   0.02
    49   6    -0.02  -0.00  -0.01     0.06  -0.01   0.00     0.01   0.01   0.01
    50   6    -0.01  -0.01  -0.01     0.06  -0.01  -0.00     0.02   0.01   0.01
    51   6    -0.01  -0.02  -0.01     0.06   0.01  -0.02     0.02  -0.00  -0.01
    52   6     0.00  -0.03  -0.01     0.05   0.02  -0.03     0.03  -0.01  -0.02
    53   6     0.00  -0.04  -0.01     0.04   0.03  -0.05     0.03  -0.02  -0.03
    54   6     0.02  -0.04  -0.00     0.02   0.04  -0.05     0.03  -0.03  -0.04
    55   6     0.02  -0.04  -0.00    -0.00   0.05  -0.06     0.02  -0.04  -0.05
    56   6    -0.00  -0.02  -0.01    -0.04   0.04  -0.04    -0.03  -0.03  -0.03
    57   6     0.02  -0.03  -0.00    -0.03   0.05  -0.05     0.01  -0.04  -0.04
    58   6    -0.03  -0.02  -0.02     0.03   0.02  -0.03    -0.03  -0.02  -0.01
    59   6    -0.01  -0.03  -0.01    -0.02   0.05  -0.06    -0.02  -0.04  -0.04
    60   6     0.00  -0.04  -0.01    -0.02   0.05  -0.06    -0.00  -0.04  -0.05
    61   6    -0.02   0.10  -0.05     0.01  -0.12   0.11    -0.05   0.09   0.16
    62   6     0.00   0.07   0.09    -0.00  -0.13   0.18     0.00   0.09   0.03
    63   6    -0.02   0.21  -0.07    -0.03  -0.08   0.15    -0.14   0.07   0.28
    64   1    -0.03   0.21  -0.18    -0.01  -0.08   0.09    -0.16   0.08   0.37
    65   1    -0.02   0.32  -0.05    -0.07   0.00   0.15    -0.23   0.00   0.24
    66   1    -0.01   0.19   0.00    -0.03  -0.11   0.23    -0.10   0.11   0.32
    67   6    -0.00   0.20   0.19    -0.04  -0.06   0.23    -0.02  -0.01  -0.05
    68   1     0.03   0.15   0.27    -0.04  -0.07   0.27     0.01   0.00  -0.14
    69   1    -0.00   0.26   0.25    -0.05  -0.04   0.28    -0.02  -0.01  -0.04
    70   1    -0.04   0.28   0.12    -0.07  -0.01   0.19    -0.06  -0.09  -0.02
    71   6     0.02  -0.06   0.14     0.01  -0.19   0.20     0.06   0.18  -0.02
    72   1     0.02  -0.16   0.07     0.02  -0.24   0.17     0.08   0.26   0.03
    73   1     0.04  -0.08   0.25     0.02  -0.20   0.25     0.07   0.19  -0.12
    74   6    -0.03   0.03  -0.15     0.05  -0.14   0.02    -0.03   0.11   0.16
    75   1    -0.05   0.06  -0.26     0.06  -0.14  -0.03    -0.06   0.11   0.24
    76   1    -0.03  -0.05  -0.14     0.07  -0.16  -0.00     0.02   0.13   0.09
                      4                      5                      6
                      A                      A                      A
 Frequencies --     76.7418               124.1239               159.5210
 Red. masses --      3.7590                 3.5791                 2.5181
 Frc consts  --      0.0130                 0.0325                 0.0378
 IR Inten    --      0.0000                 0.0000                 0.0000
  Atom  AN      X      Y      Z        X      Y      Z        X      Y      Z
     1   6    -0.00  -0.00  -0.01    -0.01   0.00   0.00    -0.01  -0.01   0.00
     2   6    -0.01  -0.01  -0.01    -0.01  -0.00   0.00    -0.01  -0.01   0.00
     3   6    -0.01  -0.01  -0.01    -0.01   0.00   0.00    -0.01  -0.01   0.01
     4   6    -0.02  -0.01  -0.01    -0.01   0.00   0.00    -0.01  -0.01   0.01
     5   6    -0.01  -0.00  -0.00    -0.01   0.01   0.00    -0.01  -0.01   0.01
     6   6    -0.01  -0.00  -0.00    -0.02   0.01   0.00    -0.01  -0.01   0.00
     7   6     0.00  -0.00  -0.01    -0.02   0.00   0.00    -0.01  -0.01   0.00
     8   6     0.00  -0.01  -0.01    -0.02  -0.00  -0.00    -0.01  -0.01  -0.00
     9   6    -0.00  -0.01  -0.02    -0.01  -0.00   0.00    -0.01  -0.01   0.00
    10   6    -0.01  -0.01  -0.02    -0.01  -0.00   0.00     0.00   0.00   0.00
    11   6    -0.02  -0.01  -0.01    -0.01  -0.00   0.01    -0.00  -0.00   0.01
    12   6    -0.02  -0.01  -0.01    -0.01   0.00   0.00    -0.01  -0.00   0.01
    13   6    -0.03  -0.00  -0.00    -0.01   0.00   0.00    -0.01  -0.00   0.01
    14   6    -0.02  -0.00   0.00    -0.02   0.01  -0.00    -0.01  -0.00   0.00
    15   6    -0.02   0.00   0.00    -0.02   0.01  -0.00    -0.01  -0.00   0.00
    16   6    -0.01   0.00   0.01    -0.02   0.01  -0.00    -0.02  -0.00   0.00
    17   6    -0.01   0.00   0.00    -0.02   0.01  -0.00    -0.02  -0.00   0.00
    18   6    -0.00   0.00   0.00    -0.02   0.01   0.00    -0.02  -0.00   0.00
    19   6     0.00   0.00  -0.00    -0.02   0.00  -0.00    -0.02  -0.00   0.00
    20   6     0.00  -0.01  -0.01    -0.02  -0.00  -0.00    -0.01  -0.00  -0.00
    21   6     0.00  -0.00  -0.01    -0.02   0.00  -0.00    -0.01  -0.00  -0.00
    22   6     0.00  -0.00  -0.00    -0.02   0.00  -0.00    -0.01  -0.00   0.00
    23   6    -0.00   0.00  -0.00    -0.02   0.00  -0.00    -0.02  -0.00   0.00
    24   6    -0.01   0.00   0.00    -0.02   0.01  -0.00    -0.02  -0.00   0.00
    25   6    -0.01   0.00   0.01    -0.02   0.01  -0.00    -0.02  -0.00   0.00
    26   6    -0.02   0.00   0.01    -0.02   0.01  -0.00    -0.02  -0.00   0.00
    27   6    -0.02   0.00   0.01    -0.02   0.01  -0.00    -0.02  -0.00   0.00
    28   6    -0.03   0.00   0.00    -0.02   0.01  -0.00    -0.01  -0.00   0.00
    29   6    -0.02  -0.01  -0.01    -0.01   0.00   0.01    -0.01  -0.00   0.01
    30   6    -0.03  -0.01  -0.01    -0.01   0.01   0.00    -0.01   0.00   0.01
    31   6    -0.03  -0.01  -0.01    -0.01   0.00   0.00    -0.01   0.00   0.01
    32   6    -0.02  -0.01  -0.01    -0.01  -0.00   0.00     0.00   0.00   0.00
    33   6    -0.02  -0.01  -0.02     0.00  -0.00   0.00    -0.00   0.00   0.00
    34   6    -0.02  -0.01  -0.01    -0.01   0.00   0.00    -0.01   0.01   0.00
    35   6    -0.02  -0.00  -0.00    -0.01   0.01  -0.00    -0.01   0.00   0.00
    36   6    -0.02  -0.00   0.00    -0.02   0.01  -0.00    -0.01  -0.00   0.00
    37   6    -0.03  -0.00  -0.00    -0.01   0.01   0.00    -0.01   0.00   0.00
    38   6    -0.03  -0.00   0.00    -0.02   0.01   0.00    -0.01  -0.00   0.01
    39   6    -0.03  -0.01  -0.00    -0.01   0.01   0.00    -0.01  -0.00   0.01
    40   6    -0.03  -0.01  -0.01    -0.01   0.00   0.01    -0.01   0.00   0.01
    41   6    -0.01  -0.01  -0.02     0.00  -0.00   0.00     0.02   0.00  -0.00
    42   6    -0.01  -0.01  -0.02     0.01  -0.01   0.00    -0.00   0.00  -0.00
    43   6    -0.01  -0.01  -0.02    -0.00  -0.00   0.00    -0.01   0.01  -0.00
    44   6    -0.01  -0.01  -0.01    -0.01   0.00  -0.00    -0.01   0.01  -0.00
    45   6    -0.01  -0.00  -0.01    -0.02   0.01  -0.00    -0.01   0.00  -0.00
    46   6    -0.01  -0.00  -0.00    -0.02   0.01  -0.00    -0.01  -0.00   0.00
    47   6    -0.02   0.00   0.01    -0.02   0.01  -0.00    -0.02  -0.00   0.00
    48   6    -0.01   0.00   0.01    -0.02   0.01  -0.00    -0.02  -0.00   0.00
    49   6    -0.01   0.00   0.00    -0.02   0.01  -0.00    -0.02  -0.00   0.00
    50   6    -0.00   0.00  -0.00    -0.02   0.00  -0.00    -0.02  -0.00   0.00
    51   6    -0.00  -0.00  -0.01    -0.02   0.00  -0.00    -0.01   0.00  -0.00
    52   6    -0.00  -0.01  -0.01    -0.02   0.00  -0.00    -0.01  -0.00  -0.00
    53   6    -0.00  -0.01  -0.02    -0.01  -0.00  -0.00    -0.01   0.00  -0.00
    54   6    -0.00  -0.01  -0.02    -0.01  -0.00  -0.00    -0.01   0.00  -0.00
    55   6    -0.01  -0.01  -0.02    -0.01  -0.00   0.00     0.01   0.00   0.00
    56   6    -0.02  -0.01  -0.01    -0.01   0.00   0.01    -0.00   0.00   0.01
    57   6    -0.01  -0.01  -0.02    -0.01  -0.00   0.00     0.01   0.00  -0.00
    58   6    -0.02  -0.00  -0.01    -0.01   0.01   0.00    -0.01   0.00   0.00
    59   6    -0.02  -0.01  -0.02    -0.01  -0.00   0.00     0.01   0.00   0.00
    60   6    -0.01  -0.01  -0.02    -0.00  -0.00   0.00     0.03   0.01  -0.00
    61   6     0.15   0.03   0.07     0.07  -0.01  -0.01     0.13  -0.01  -0.03
    62   6     0.08   0.05   0.07     0.18  -0.05  -0.01     0.09   0.01  -0.04
    63   6     0.30  -0.06  -0.11    -0.01   0.13   0.07     0.05  -0.02   0.09
    64   1     0.30  -0.06  -0.08    -0.13   0.17   0.09     0.28  -0.11  -0.16
    65   1     0.47  -0.15  -0.09    -0.05   0.10   0.05    -0.19   0.34   0.10
    66   1     0.24  -0.05  -0.31     0.09   0.23   0.11    -0.06  -0.28   0.42
    67   6     0.08   0.05   0.06     0.35  -0.11  -0.04    -0.10   0.05  -0.02
    68   1     0.06   0.06   0.07     0.47  -0.18  -0.04    -0.18   0.10  -0.02
    69   1     0.08   0.03   0.05     0.40   0.01  -0.07    -0.16  -0.05   0.06
    70   1     0.10   0.07   0.07     0.30  -0.22  -0.01    -0.09   0.14  -0.06
    71   6     0.02   0.08   0.07     0.10  -0.04  -0.00     0.17   0.02  -0.06
    72   1     0.00   0.09   0.08    -0.01  -0.01   0.01     0.31   0.02  -0.05
    73   1    -0.03   0.10   0.08     0.16  -0.06  -0.01     0.11   0.05  -0.12
    74   6     0.08   0.07   0.21     0.01  -0.07  -0.05     0.18  -0.01  -0.10
    75   1     0.12   0.06   0.22    -0.08  -0.05  -0.05     0.19  -0.01  -0.10
    76   1     0.00   0.10   0.31     0.05  -0.14  -0.09     0.18   0.01  -0.11
                      7                      8                      9
                      A                      A                      A
 Frequencies --    188.5500               207.4904               260.1054
 Red. masses --      1.3770                 2.5814                11.9918
 Frc consts  --      0.0288                 0.0655                 0.4780
 IR Inten    --      0.0000                 0.0000                 0.0000
  Atom  AN      X      Y      Z        X      Y      Z        X      Y      Z
     1   6     0.00   0.00  -0.00     0.00  -0.01  -0.00    -0.01   0.12   0.08
     2   6     0.00   0.00  -0.00     0.01  -0.01   0.00     0.01   0.08   0.09
     3   6     0.00   0.00  -0.00     0.00  -0.00   0.00    -0.01  -0.03   0.13
     4   6     0.00   0.00  -0.00     0.00  -0.01   0.00     0.00  -0.07   0.15
     5   6     0.00   0.00  -0.00     0.00  -0.01   0.00     0.00  -0.03   0.09
     6   6     0.01  -0.00  -0.00     0.00  -0.01  -0.00    -0.01   0.06   0.06
     7   6     0.00  -0.00  -0.00     0.00  -0.01  -0.00     0.01   0.17   0.09
     8   6     0.00   0.00   0.00     0.00  -0.01  -0.00     0.04   0.17   0.10
     9   6     0.00   0.00  -0.00     0.01  -0.00  -0.00     0.05   0.12   0.08
    10   6     0.00   0.00   0.00     0.02   0.01  -0.00     0.03   0.07   0.07
    11   6     0.00   0.00  -0.00     0.01   0.00   0.00    -0.04  -0.06   0.14
    12   6     0.00   0.00  -0.00     0.00  -0.00   0.00    -0.02  -0.10   0.19
    13   6     0.00  -0.00  -0.00    -0.00  -0.00   0.00    -0.00  -0.09   0.12
    14   6     0.00  -0.00  -0.00    -0.00  -0.01  -0.00    -0.01  -0.06   0.06
    15   6     0.00  -0.00  -0.00    -0.00  -0.01  -0.00     0.01  -0.04   0.06
    16   6     0.01  -0.00  -0.00    -0.00  -0.01  -0.00    -0.02   0.01   0.03
    17   6     0.01  -0.00  -0.00     0.00  -0.01  -0.00    -0.03   0.05   0.03
    18   6     0.01  -0.00  -0.00    -0.00  -0.01  -0.00    -0.01   0.08   0.01
    19   6     0.01  -0.00  -0.00     0.00  -0.01  -0.01    -0.01   0.13   0.04
    20   6     0.00  -0.00   0.00     0.00  -0.00  -0.00     0.05   0.13   0.05
    21   6     0.00  -0.00   0.00    -0.00  -0.00  -0.01     0.02   0.09  -0.04
    22   6     0.01  -0.00  -0.00    -0.00  -0.01  -0.01     0.02   0.09  -0.04
    23   6     0.01  -0.00  -0.00    -0.00  -0.01  -0.00     0.05   0.07  -0.12
    24   6     0.01  -0.00  -0.00    -0.00  -0.01  -0.00     0.03   0.05  -0.07
    25   6     0.01  -0.00  -0.00    -0.01  -0.01  -0.00     0.03   0.02  -0.06
    26   6     0.01  -0.00  -0.00    -0.01  -0.01  -0.00    -0.02  -0.01  -0.03
    27   6     0.00  -0.00  -0.00    -0.01  -0.01  -0.00    -0.06  -0.06  -0.04
    28   6     0.00  -0.00  -0.00    -0.01  -0.01  -0.00    -0.05  -0.09  -0.03
    29   6     0.00   0.00  -0.00     0.00   0.00   0.00    -0.05  -0.09   0.19
    30   6    -0.00  -0.00  -0.00    -0.01   0.00   0.00    -0.01  -0.17  -0.09
    31   6    -0.00  -0.00  -0.00    -0.01   0.01   0.01     0.01  -0.12  -0.04
    32   6    -0.01   0.00   0.00    -0.01   0.01   0.01     0.01  -0.08  -0.01
    33   6    -0.00   0.00   0.00    -0.01   0.01   0.01     0.03  -0.05  -0.03
    34   6    -0.00  -0.00   0.00    -0.01   0.01   0.00     0.01  -0.06  -0.06
    35   6     0.00  -0.00  -0.00    -0.01  -0.01   0.00    -0.01  -0.08  -0.09
    36   6     0.00  -0.00  -0.00    -0.01  -0.01  -0.00    -0.05  -0.13  -0.08
    37   6    -0.00  -0.00  -0.00    -0.01  -0.01  -0.00    -0.04  -0.17  -0.10
    38   6     0.00  -0.00  -0.00    -0.01  -0.01  -0.00    -0.05  -0.13  -0.05
    39   6    -0.00  -0.00  -0.00    -0.00  -0.00   0.00    -0.02  -0.09   0.04
    40   6    -0.00  -0.00  -0.00    -0.00   0.00   0.01    -0.02  -0.09   0.04
    41   6    -0.00  -0.00   0.00     0.02   0.01   0.00     0.02   0.01   0.04
    42   6    -0.00  -0.00   0.00    -0.01   0.01   0.00     0.02  -0.01  -0.03
    43   6     0.00  -0.00   0.00    -0.01   0.00  -0.00    -0.01   0.03  -0.06
    44   6     0.00  -0.00   0.00    -0.01   0.00   0.00     0.00   0.03  -0.09
    45   6     0.00  -0.00   0.00    -0.01  -0.00  -0.00    -0.00   0.07  -0.15
    46   6     0.00  -0.00  -0.00    -0.01  -0.01   0.00     0.01   0.03  -0.13
    47   6     0.00  -0.00  -0.00    -0.01  -0.01  -0.00    -0.03  -0.07  -0.07
    48   6     0.00  -0.00  -0.00    -0.01  -0.01   0.00     0.02   0.01  -0.10
    49   6     0.00  -0.00  -0.00    -0.01  -0.01   0.00     0.04   0.06  -0.14
    50   6     0.00  -0.00  -0.00    -0.01  -0.01  -0.00     0.05   0.09  -0.19
    51   6     0.00  -0.00   0.00    -0.01  -0.00  -0.00     0.02   0.10  -0.19
    52   6     0.00  -0.00   0.00    -0.00  -0.00  -0.00     0.00   0.09  -0.12
    53   6     0.00  -0.00   0.00    -0.00   0.00  -0.00     0.01   0.06  -0.06
    54   6     0.00  -0.00   0.00     0.01   0.00  -0.00     0.05   0.09   0.03
    55   6     0.00   0.00   0.00     0.02   0.01   0.00     0.06   0.06   0.04
    56   6    -0.00  -0.00  -0.00    -0.00   0.00   0.01    -0.05  -0.07   0.12
    57   6    -0.00  -0.00   0.00     0.02   0.01  -0.00    -0.01  -0.01   0.09
    58   6     0.00  -0.00  -0.00    -0.01  -0.00   0.00     0.01  -0.12  -0.08
    59   6    -0.01   0.00   0.00    -0.00   0.01   0.01    -0.03  -0.05   0.07
    60   6    -0.01  -0.00   0.00     0.02   0.01   0.00    -0.03  -0.02   0.06
    61   6    -0.00   0.01   0.00     0.07   0.01  -0.02    -0.00   0.00   0.00
    62   6    -0.03   0.01   0.02    -0.03   0.05   0.01    -0.00   0.00   0.00
    63   6     0.00   0.01  -0.00    -0.01  -0.05   0.09    -0.00  -0.00   0.00
    64   1     0.31  -0.11  -0.39    -0.18   0.02   0.43     0.00  -0.00   0.00
    65   1    -0.17   0.51   0.06     0.01  -0.43   0.02    -0.00  -0.01  -0.00
    66   1    -0.17  -0.34   0.34     0.12   0.19  -0.09    -0.00  -0.00  -0.00
    67   6     0.06  -0.04  -0.01     0.04   0.02  -0.01    -0.00   0.00   0.00
    68   1     0.01  -0.01  -0.03     0.11  -0.01  -0.06     0.01  -0.00  -0.00
    69   1     0.08  -0.09  -0.11     0.06   0.09  -0.00    -0.00   0.01   0.01
    70   1     0.14  -0.07   0.04    -0.03  -0.05  -0.00    -0.01  -0.00  -0.00
    71   6    -0.14   0.04   0.04    -0.20   0.05   0.05     0.00   0.00   0.00
    72   1    -0.24   0.04   0.03    -0.29   0.01   0.02    -0.00   0.00   0.00
    73   1    -0.15   0.04   0.08    -0.25   0.05   0.15     0.01  -0.00  -0.00
    74   6     0.01   0.01   0.01     0.21   0.04  -0.15     0.00   0.00  -0.00
    75   1     0.04   0.01  -0.01     0.27   0.03  -0.16     0.01   0.00  -0.00
    76   1    -0.02   0.04   0.05     0.22   0.09  -0.18    -0.00   0.00   0.00
                     10                     11                     12
                      A                      A                      A
 Frequencies --    260.3327               261.0517               262.6240
 Red. masses --     11.9472                11.7592                11.3656
 Frc consts  --      0.4771                 0.4721                 0.4619
 IR Inten    --      0.0000                 0.0000                 0.0000
  Atom  AN      X      Y      Z        X      Y      Z        X      Y      Z
     1   6     0.02  -0.17   0.03     0.01  -0.02   0.07     0.11  -0.03  -0.01
     2   6    -0.01  -0.19   0.05     0.00  -0.05   0.03     0.10   0.08  -0.01
     3   6    -0.04  -0.18   0.05     0.05  -0.06   0.02     0.08   0.08  -0.03
     4   6    -0.02  -0.13   0.00     0.08  -0.09   0.05     0.08   0.00  -0.01
     5   6    -0.01  -0.11  -0.01     0.11  -0.10   0.10     0.11  -0.08   0.01
     6   6     0.03  -0.14   0.00     0.05  -0.06   0.08     0.14  -0.11  -0.00
     7   6     0.03  -0.07   0.06    -0.04   0.04   0.09     0.09  -0.02  -0.01
     8   6     0.04  -0.04   0.09    -0.04   0.03   0.04     0.10   0.08   0.02
     9   6     0.00  -0.10   0.06    -0.02  -0.02   0.02     0.12   0.14   0.02
    10   6     0.01  -0.06   0.06    -0.03  -0.01  -0.04     0.12   0.14   0.00
    11   6    -0.05  -0.13   0.04     0.06  -0.01  -0.06     0.08   0.10  -0.05
    12   6    -0.04  -0.07  -0.07     0.08  -0.05  -0.01     0.03   0.01  -0.02
    13   6    -0.08  -0.04  -0.16     0.10  -0.05   0.01     0.01  -0.01  -0.01
    14   6    -0.11  -0.03  -0.15     0.14  -0.05   0.09     0.02  -0.06  -0.01
    15   6    -0.06  -0.05  -0.07     0.14  -0.08   0.12     0.10  -0.08   0.02
    16   6    -0.04  -0.03  -0.05     0.09  -0.04   0.09     0.13  -0.11   0.00
    17   6     0.02  -0.08  -0.01     0.02  -0.02   0.10     0.16  -0.13  -0.03
    18   6     0.03  -0.03   0.01    -0.08   0.04   0.14     0.13  -0.11  -0.05
    19   6     0.02  -0.02   0.07    -0.08   0.07   0.15     0.10  -0.07  -0.05
    20   6     0.09   0.03   0.16    -0.07   0.03   0.03     0.06   0.07   0.04
    21   6     0.06   0.04   0.18    -0.08   0.05   0.07     0.04   0.02   0.02
    22   6     0.03   0.02   0.12    -0.10   0.06   0.17     0.04  -0.04  -0.01
    23   6     0.02   0.04   0.06    -0.11   0.04   0.17     0.02  -0.05   0.00
    24   6     0.03   0.00   0.01    -0.11   0.03   0.15     0.06  -0.09  -0.03
    25   6     0.01   0.03  -0.03    -0.04   0.01   0.10    -0.00  -0.10   0.00
    26   6    -0.05  -0.01  -0.05     0.05  -0.01   0.08     0.02  -0.10  -0.01
    27   6    -0.07   0.00  -0.09     0.09   0.01   0.06    -0.07  -0.11  -0.02
    28   6    -0.11  -0.04  -0.15     0.11  -0.02   0.06    -0.05  -0.08  -0.03
    29   6    -0.04  -0.06  -0.03     0.09  -0.02  -0.10     0.04   0.06  -0.03
    30   6    -0.03   0.07  -0.06     0.04  -0.04  -0.09    -0.09   0.03   0.02
    31   6    -0.02   0.02  -0.06     0.07  -0.07  -0.14    -0.10   0.07   0.05
    32   6    -0.03   0.03  -0.01     0.07  -0.04  -0.14    -0.12   0.11   0.04
    33   6    -0.02   0.08   0.01    -0.02   0.02  -0.10    -0.15   0.13   0.03
    34   6    -0.03   0.14  -0.00    -0.04   0.06  -0.08    -0.14   0.12   0.00
    35   6     0.01   0.19  -0.05    -0.00   0.05  -0.03    -0.11  -0.07   0.01
    36   6    -0.00   0.10  -0.07     0.02   0.02  -0.02    -0.12  -0.13  -0.01
    37   6    -0.04   0.04  -0.10     0.04  -0.03  -0.04    -0.10  -0.07  -0.02
    38   6    -0.09  -0.03  -0.16     0.07  -0.03  -0.03    -0.06  -0.06  -0.04
    39   6    -0.06  -0.04  -0.18     0.08  -0.05  -0.08    -0.04  -0.02  -0.01
    40   6    -0.03  -0.02  -0.12     0.09  -0.06  -0.17    -0.04   0.04   0.01
    41   6     0.05   0.01   0.05    -0.05   0.01  -0.08    -0.03   0.10   0.01
    42   6     0.04   0.03   0.05    -0.08   0.03  -0.09    -0.11   0.11  -0.00
    43   6     0.06   0.05   0.07    -0.13   0.08  -0.11    -0.09   0.08  -0.01
    44   6     0.01   0.11   0.01    -0.11   0.10  -0.10    -0.10   0.09  -0.01
    45   6     0.02   0.13  -0.00    -0.08   0.10  -0.06    -0.08   0.00   0.00
    46   6     0.04   0.18  -0.05    -0.05   0.07  -0.02    -0.08  -0.07   0.03
    47   6    -0.01   0.07  -0.06     0.03   0.01   0.04    -0.13  -0.15  -0.00
    48   6     0.04   0.08  -0.05    -0.04   0.00   0.06    -0.10  -0.13   0.03
    49   6     0.05   0.13  -0.04    -0.06   0.02   0.06    -0.09  -0.10   0.05
    50   6     0.04   0.07   0.03    -0.09   0.03   0.09    -0.04  -0.06   0.03
    51   6     0.04   0.07   0.07    -0.08   0.05   0.00    -0.03  -0.00   0.01
    52   6     0.08   0.04   0.16    -0.10   0.05  -0.01    -0.01   0.02   0.01
    53   6     0.10   0.03   0.15    -0.14   0.05  -0.09    -0.02   0.06   0.01
    54   6     0.11   0.03   0.15    -0.11   0.02  -0.06     0.05   0.07   0.03
    55   6     0.07  -0.00   0.09    -0.08  -0.01  -0.06     0.05   0.11   0.02
    56   6    -0.02  -0.04  -0.06     0.11  -0.03  -0.17    -0.02   0.05  -0.00
    57   6    -0.04  -0.08   0.05     0.04  -0.00  -0.06     0.08   0.13  -0.02
    58   6    -0.02   0.17  -0.03    -0.01   0.02  -0.07    -0.11   0.05   0.02
    59   6    -0.03  -0.00  -0.01     0.09  -0.03  -0.14    -0.06   0.08   0.03
    60   6    -0.01  -0.04   0.04     0.04  -0.01  -0.10    -0.01   0.09   0.00
    61   6     0.00  -0.00   0.00     0.00   0.00  -0.00    -0.01  -0.01   0.01
    62   6     0.00  -0.00  -0.00    -0.00   0.01   0.00     0.03  -0.03  -0.00
    63   6    -0.00  -0.00   0.00     0.00   0.00  -0.00     0.00   0.04  -0.02
    64   1    -0.01   0.00   0.02     0.02  -0.00  -0.02    -0.01   0.04  -0.07
    65   1     0.00  -0.02   0.00    -0.01   0.03   0.00     0.03   0.08  -0.01
    66   1     0.01   0.01  -0.01    -0.00  -0.02   0.02     0.01   0.04  -0.02
    67   6    -0.01   0.00   0.00     0.03  -0.01  -0.01     0.01  -0.02   0.00
    68   1    -0.04   0.02   0.01     0.07  -0.03  -0.03    -0.01  -0.02   0.03
    69   1    -0.01  -0.02  -0.01     0.04   0.03   0.00     0.01  -0.03   0.00
    70   1     0.01   0.02   0.01    -0.01  -0.04  -0.01     0.02  -0.00   0.00
    71   6     0.01   0.00  -0.00    -0.04   0.00   0.01     0.07  -0.01  -0.02
    72   1     0.02   0.00   0.00    -0.07  -0.01   0.00     0.11   0.01  -0.00
    73   1     0.00   0.00  -0.01    -0.03  -0.00   0.04     0.06  -0.00  -0.07
    74   6     0.00  -0.00  -0.00     0.01   0.01  -0.00    -0.07  -0.03   0.04
    75   1    -0.00  -0.00  -0.00     0.01   0.01  -0.00    -0.10  -0.02   0.04
    76   1    -0.00  -0.00  -0.00     0.01   0.01  -0.00    -0.05  -0.05   0.04
                     13                     14                     15
                      A                      A                      A
 Frequencies --    268.4589               308.9255               340.1568
 Red. masses --     10.9884                 1.8540                11.8437
 Frc consts  --      0.4666                 0.1042                 0.8074
 IR Inten    --      0.0000                 0.0000                 0.0000
  Atom  AN      X      Y      Z        X      Y      Z        X      Y      Z
     1   6    -0.02   0.11   0.02     0.00   0.00  -0.00    -0.00   0.18   0.05
     2   6    -0.04   0.08  -0.00     0.00   0.00   0.00     0.03   0.17   0.05
     3   6    -0.05   0.06  -0.02    -0.00   0.00   0.00    -0.01  -0.07   0.12
     4   6    -0.03   0.08  -0.08    -0.00   0.00  -0.00     0.02  -0.13   0.13
     5   6     0.00   0.08  -0.05    -0.00   0.00  -0.00     0.04  -0.08   0.07
     6   6     0.02   0.08  -0.02     0.00  -0.00  -0.00     0.05   0.01   0.04
     7   6    -0.01   0.10   0.06     0.00   0.00  -0.00    -0.00   0.18   0.06
     8   6    -0.03   0.06   0.06     0.00   0.00   0.00     0.02   0.17   0.03
     9   6    -0.06   0.04   0.03     0.00   0.00   0.00     0.06   0.19   0.04
    10   6    -0.13  -0.01   0.02    -0.00   0.00   0.00     0.01   0.06   0.02
    11   6    -0.09   0.01  -0.01    -0.00   0.00   0.00    -0.06  -0.09   0.12
    12   6    -0.04   0.05  -0.10    -0.00   0.00  -0.00    -0.02  -0.11   0.09
    13   6    -0.01   0.01  -0.13    -0.00   0.00  -0.00    -0.06  -0.05  -0.12
    14   6     0.03   0.01  -0.07    -0.00  -0.00  -0.00    -0.09  -0.03  -0.12
    15   6     0.07   0.03  -0.04    -0.00  -0.00  -0.00     0.02  -0.06  -0.01
    16   6     0.16   0.01  -0.02     0.00  -0.00  -0.00     0.06  -0.04  -0.01
    17   6     0.10   0.02  -0.01     0.00  -0.00  -0.00     0.07  -0.03  -0.01
    18   6     0.10   0.02  -0.00     0.00  -0.00  -0.00     0.06  -0.02  -0.02
    19   6     0.03   0.07   0.07     0.00  -0.00  -0.00     0.02   0.04  -0.04
    20   6    -0.04   0.04   0.07     0.00   0.00   0.00    -0.06  -0.00  -0.13
    21   6     0.00   0.03   0.13     0.00   0.00   0.00    -0.04  -0.04  -0.18
    22   6     0.02   0.05   0.10     0.00   0.00   0.00    -0.01  -0.02  -0.10
    23   6     0.07   0.01   0.04     0.00  -0.00   0.00     0.01  -0.05  -0.02
    24   6     0.15   0.02  -0.02     0.00  -0.00  -0.00     0.04  -0.03  -0.02
    25   6     0.22   0.03  -0.04     0.00  -0.00  -0.00     0.02  -0.02   0.00
    26   6     0.23   0.02  -0.02     0.00  -0.00  -0.00     0.01  -0.02  -0.02
    27   6     0.17   0.02  -0.02    -0.00  -0.00  -0.00    -0.02   0.01  -0.04
    28   6     0.07   0.00  -0.05    -0.00  -0.00  -0.00    -0.11  -0.03  -0.12
    29   6    -0.06   0.01  -0.04    -0.00   0.00   0.00    -0.05  -0.09   0.11
    30   6    -0.01  -0.10  -0.05    -0.00   0.00   0.00    -0.00   0.18   0.06
    31   6    -0.05  -0.06  -0.05    -0.00   0.00   0.00     0.03   0.03  -0.04
    32   6    -0.11  -0.02   0.01     0.00  -0.00  -0.00     0.06  -0.02  -0.02
    33   6    -0.12  -0.02   0.02     0.00  -0.00  -0.00     0.07  -0.03  -0.01
    34   6    -0.04  -0.07   0.02     0.00  -0.00  -0.00     0.05   0.00   0.04
    35   6     0.02  -0.09   0.01    -0.00   0.00   0.00     0.03   0.17   0.05
    36   6     0.05  -0.06  -0.03    -0.00   0.00   0.00     0.07   0.19   0.04
    37   6     0.01  -0.08  -0.07    -0.00   0.00   0.00     0.02   0.17   0.04
    38   6     0.01  -0.05  -0.09    -0.00  -0.00  -0.00    -0.06  -0.00  -0.13
    39   6    -0.02  -0.03  -0.13    -0.00   0.00  -0.00    -0.04  -0.04  -0.18
    40   6    -0.04  -0.04  -0.08    -0.00   0.00   0.00    -0.00  -0.02  -0.10
    41   6    -0.18  -0.01   0.02     0.00   0.00  -0.00     0.02  -0.02  -0.02
    42   6    -0.16  -0.01   0.02    -0.00  -0.00  -0.00     0.06  -0.04  -0.01
    43   6    -0.09  -0.02   0.03    -0.00   0.00  -0.00     0.02  -0.06  -0.01
    44   6    -0.02  -0.07   0.05    -0.00   0.00  -0.00     0.04  -0.08   0.07
    45   6     0.01  -0.08   0.09    -0.00   0.00   0.00     0.02  -0.13   0.12
    46   6     0.03  -0.08   0.04    -0.00  -0.00   0.00    -0.01  -0.07   0.12
    47   6     0.13   0.01  -0.02    -0.00  -0.00   0.00     0.01   0.07   0.02
    48   6     0.16   0.02  -0.03    -0.00  -0.00   0.00    -0.01  -0.02   0.05
    49   6     0.08  -0.02   0.02    -0.00  -0.00   0.00    -0.06  -0.09   0.12
    50   6     0.04  -0.02   0.06    -0.00  -0.00   0.00    -0.05  -0.09   0.11
    51   6     0.02  -0.05   0.11    -0.00  -0.00   0.00    -0.02  -0.11   0.09
    52   6    -0.01  -0.01   0.12    -0.00   0.00   0.00    -0.06  -0.04  -0.13
    53   6    -0.06  -0.01   0.05    -0.00   0.00   0.00    -0.09  -0.03  -0.12
    54   6    -0.09  -0.00   0.04    -0.00   0.00   0.00    -0.11  -0.03  -0.12
    55   6    -0.15  -0.02   0.02    -0.00   0.00   0.00    -0.02   0.01  -0.04
    56   6    -0.09  -0.01  -0.02    -0.00   0.00   0.00     0.01  -0.05  -0.02
    57   6    -0.14  -0.02   0.03    -0.00   0.00   0.00    -0.01  -0.02   0.05
    58   6    -0.00  -0.11  -0.02    -0.00   0.00   0.00     0.00   0.18   0.05
    59   6    -0.15  -0.01   0.03    -0.00   0.00   0.00     0.04  -0.03  -0.02
    60   6    -0.18  -0.02   0.03     0.00   0.00   0.00     0.02  -0.02   0.00
    61   6     0.08  -0.01  -0.02    -0.02   0.00  -0.06    -0.02   0.01   0.01
    62   6     0.06  -0.01  -0.01     0.02   0.01  -0.08    -0.02   0.01   0.01
    63   6     0.03   0.01   0.05    -0.06  -0.14   0.03    -0.01  -0.02  -0.01
    64   1    -0.02   0.04   0.12     0.10  -0.20   0.02     0.01  -0.02  -0.01
    65   1    -0.01  -0.05   0.03    -0.19  -0.07   0.02     0.01  -0.02  -0.01
    66   1     0.09   0.07   0.07    -0.13  -0.27   0.12    -0.02  -0.03  -0.03
    67   6    -0.01   0.02  -0.00     0.09   0.14   0.03     0.00  -0.01   0.00
    68   1     0.03  -0.00  -0.01     0.43  -0.08   0.07    -0.02   0.01  -0.00
    69   1    -0.03   0.05   0.09     0.11   0.50   0.33     0.01  -0.03  -0.05
    70   1    -0.08   0.03  -0.05    -0.25   0.11  -0.15     0.04  -0.02   0.03
    71   6     0.03   0.03  -0.02    -0.00  -0.07  -0.04     0.01   0.00   0.01
    72   1     0.08   0.05  -0.01    -0.08  -0.08  -0.07    -0.01   0.01   0.01
    73   1    -0.02   0.05  -0.06     0.04  -0.09   0.03     0.03  -0.00   0.01
    74   6     0.08  -0.03  -0.06    -0.02   0.05   0.06     0.01   0.02  -0.02
    75   1     0.05  -0.02  -0.06    -0.02   0.04   0.17     0.04   0.01  -0.03
    76   1     0.06  -0.05  -0.04    -0.01   0.10   0.03     0.00   0.02  -0.01
                     16                     17                     18
                      A                      A                      A
 Frequencies --    341.1559               344.6875               353.1495
 Red. masses --     11.4163                11.5991                11.2251
 Frc consts  --      0.7829                 0.8119                 0.8248
 IR Inten    --      0.0000                 0.0000                 0.0000
  Atom  AN      X      Y      Z        X      Y      Z        X      Y      Z
     1   6     0.04  -0.04   0.02    -0.00  -0.12  -0.02    -0.03   0.15  -0.05
     2   6     0.03   0.01  -0.03     0.02  -0.11   0.01     0.01   0.21  -0.06
     3   6     0.04   0.09  -0.07     0.01  -0.09   0.04     0.04   0.20  -0.07
     4   6     0.04   0.05  -0.09    -0.02  -0.07   0.06     0.02   0.08   0.02
     5   6     0.12  -0.12   0.03    -0.07   0.01  -0.02     0.01   0.06   0.02
     6   6     0.12  -0.15   0.03    -0.06   0.01  -0.00    -0.04   0.12  -0.00
     7   6    -0.03   0.01   0.05    -0.01  -0.12  -0.05    -0.02  -0.07  -0.11
     8   6    -0.03  -0.01  -0.02    -0.01  -0.10  -0.08    -0.06  -0.15  -0.16
     9   6    -0.01   0.00  -0.02     0.07  -0.04  -0.03    -0.03   0.01  -0.08
    10   6    -0.01   0.00  -0.03     0.22   0.12  -0.01    -0.02  -0.01  -0.02
    11   6     0.04   0.10  -0.07     0.05  -0.02   0.05     0.03   0.09  -0.00
    12   6    -0.01   0.06  -0.14    -0.03  -0.05   0.08     0.01  -0.03   0.17
    13   6    -0.04   0.03  -0.13    -0.06  -0.01  -0.05     0.06  -0.06   0.16
    14   6    -0.02  -0.03  -0.09    -0.08   0.02  -0.09     0.08  -0.06   0.12
    15   6     0.13  -0.09   0.03    -0.09   0.05  -0.07     0.10  -0.03   0.08
    16   6     0.16  -0.09   0.04    -0.05   0.08  -0.03     0.07  -0.00   0.03
    17   6     0.12  -0.10   0.05    -0.09   0.07   0.02     0.01   0.04   0.01
    18   6    -0.08   0.04   0.13    -0.09   0.06   0.06    -0.00  -0.03  -0.00
    19   6    -0.08   0.09   0.15    -0.06  -0.00   0.03     0.02  -0.08  -0.07
    20   6    -0.07  -0.04  -0.07    -0.03  -0.07  -0.10    -0.08  -0.15  -0.14
    21   6    -0.07   0.01  -0.06    -0.05  -0.04  -0.08    -0.01  -0.08  -0.02
    22   6    -0.09   0.07   0.13    -0.06  -0.01   0.06    -0.01  -0.05  -0.02
    23   6    -0.10   0.05   0.12    -0.06  -0.01   0.13    -0.05  -0.02   0.09
    24   6    -0.12   0.03   0.13    -0.04   0.05   0.09    -0.04  -0.02   0.04
    25   6    -0.03   0.01   0.05     0.16   0.07  -0.02    -0.01  -0.00   0.00
    26   6     0.03  -0.04   0.02     0.17   0.07  -0.01     0.02  -0.00  -0.00
    27   6    -0.02  -0.03  -0.03     0.18   0.09   0.00    -0.04  -0.03  -0.02
    28   6    -0.07  -0.04  -0.08    -0.01   0.00  -0.08    -0.04  -0.08  -0.03
    29   6    -0.01   0.08  -0.07    -0.03  -0.03   0.12    -0.02  -0.01   0.13
    30   6    -0.03   0.02   0.06    -0.02  -0.09  -0.04    -0.02  -0.07  -0.11
    31   6    -0.08   0.09   0.15    -0.06   0.01   0.05     0.02  -0.08  -0.07
    32   6    -0.07   0.04   0.13    -0.07   0.06   0.05    -0.01  -0.03  -0.00
    33   6     0.12  -0.10   0.05    -0.08   0.07   0.02     0.01   0.03   0.01
    34   6     0.12  -0.15   0.03    -0.07   0.03  -0.01    -0.04   0.12  -0.00
    35   6     0.03   0.01  -0.03     0.00  -0.11   0.01     0.01   0.21  -0.06
    36   6    -0.01   0.00  -0.02     0.05  -0.05  -0.03    -0.03   0.01  -0.08
    37   6    -0.03  -0.00  -0.01    -0.02  -0.09  -0.08    -0.06  -0.15  -0.15
    38   6    -0.07  -0.03  -0.07    -0.04  -0.07  -0.09    -0.08  -0.14  -0.14
    39   6    -0.07   0.01  -0.05    -0.05  -0.03  -0.05    -0.01  -0.08  -0.02
    40   6    -0.09   0.07   0.14    -0.06   0.00   0.08    -0.01  -0.05  -0.01
    41   6     0.03  -0.04   0.02     0.15   0.07  -0.01     0.02  -0.00  -0.00
    42   6     0.16  -0.09   0.04    -0.03   0.08  -0.03     0.07  -0.00   0.03
    43   6     0.13  -0.10   0.04    -0.08   0.05  -0.08     0.10  -0.03   0.07
    44   6     0.13  -0.12   0.03    -0.07   0.03  -0.03     0.01   0.05   0.02
    45   6     0.04   0.04  -0.08    -0.03  -0.06   0.04     0.02   0.08   0.02
    46   6     0.04   0.09  -0.07    -0.00  -0.09   0.04     0.04   0.20  -0.07
    47   6    -0.01   0.00  -0.03     0.20   0.11  -0.01    -0.02  -0.01  -0.02
    48   6     0.00   0.04  -0.02     0.19   0.10  -0.03     0.02   0.03  -0.02
    49   6     0.04   0.10  -0.08     0.03  -0.03   0.06     0.03   0.09  -0.00
    50   6    -0.00   0.08  -0.07    -0.04  -0.03   0.12    -0.02  -0.01   0.13
    51   6    -0.01   0.06  -0.14    -0.04  -0.04   0.06     0.01  -0.04   0.17
    52   6    -0.04   0.02  -0.13    -0.06  -0.01  -0.07     0.06  -0.07   0.16
    53   6    -0.02  -0.03  -0.09    -0.07   0.03  -0.10     0.08  -0.07   0.12
    54   6    -0.07  -0.05  -0.08     0.01   0.01  -0.08    -0.04  -0.09  -0.03
    55   6    -0.02  -0.03  -0.03     0.19   0.09   0.00    -0.04  -0.03  -0.02
    56   6    -0.10   0.05   0.13    -0.05  -0.00   0.13    -0.05  -0.02   0.09
    57   6    -0.00   0.04  -0.02     0.20   0.11  -0.03     0.02   0.02  -0.02
    58   6     0.05  -0.05   0.02    -0.02  -0.10  -0.01    -0.03   0.15  -0.05
    59   6    -0.12   0.03   0.13    -0.02   0.05   0.08    -0.04  -0.02   0.03
    60   6    -0.03   0.01   0.05     0.16   0.08  -0.02    -0.01  -0.00   0.00
    61   6    -0.02   0.00   0.00    -0.05   0.01   0.01    -0.01   0.00  -0.00
    62   6    -0.01   0.00   0.00    -0.02  -0.00   0.01    -0.00   0.01  -0.01
    63   6    -0.01  -0.03   0.00    -0.02   0.00  -0.03    -0.01  -0.03   0.01
    64   1     0.00  -0.03   0.02     0.00  -0.01  -0.07    -0.00  -0.03   0.03
    65   1     0.00  -0.04   0.00     0.02   0.03  -0.02    -0.01  -0.04   0.01
    66   1    -0.02  -0.04  -0.02    -0.05  -0.02  -0.06    -0.02  -0.03  -0.00
    67   6     0.00   0.02   0.02     0.02  -0.02   0.00     0.01   0.03   0.01
    68   1    -0.09   0.06   0.07    -0.01  -0.00   0.02    -0.10   0.08   0.07
    69   1     0.01  -0.05  -0.07     0.04  -0.04  -0.06     0.02  -0.07  -0.09
    70   1     0.11   0.07   0.05     0.08  -0.02   0.03     0.14   0.08   0.05
    71   6     0.02   0.00  -0.01     0.02  -0.03   0.00     0.00  -0.01  -0.00
    72   1     0.02   0.02   0.00     0.02  -0.03  -0.00     0.00  -0.02  -0.01
    73   1     0.04  -0.00  -0.03     0.04  -0.03   0.00     0.01  -0.02   0.00
    74   6     0.01   0.01  -0.01    -0.04   0.02   0.04     0.00   0.01  -0.00
    75   1     0.02   0.01  -0.01    -0.02   0.02   0.05     0.00   0.01   0.02
    76   1     0.01   0.02  -0.01    -0.01   0.03   0.00     0.01   0.01  -0.01
                     19                     20                     21
                      A                      A                      A
 Frequencies --    353.5874               354.4020               354.9887
 Red. masses --     10.1771                10.1240                 8.9238
 Frc consts  --      0.7497                 0.7492                 0.6626
 IR Inten    --      0.0000                 0.0000                 0.0000
  Atom  AN      X      Y      Z        X      Y      Z        X      Y      Z
     1   6     0.06  -0.08  -0.04    -0.03   0.08   0.00    -0.04   0.06   0.02
     2   6     0.05   0.08  -0.02    -0.04  -0.03  -0.00    -0.05  -0.04   0.01
     3   6    -0.02   0.10  -0.03    -0.06  -0.04   0.01    -0.03  -0.02   0.01
     4   6    -0.05   0.12  -0.08    -0.06   0.07  -0.09    -0.03   0.05  -0.04
     5   6    -0.06   0.07  -0.10    -0.03   0.11  -0.04    -0.05   0.09  -0.07
     6   6     0.07  -0.08  -0.05    -0.04   0.12  -0.01    -0.02   0.07  -0.03
     7   6     0.06  -0.11  -0.06    -0.02   0.01  -0.01    -0.04   0.08   0.06
     8   6     0.06   0.04   0.01    -0.02  -0.02  -0.02    -0.05  -0.02   0.01
     9   6     0.07   0.11   0.01    -0.04  -0.06  -0.01    -0.08  -0.12  -0.02
    10   6     0.04   0.06   0.03    -0.01  -0.06   0.06    -0.08  -0.12  -0.03
    11   6    -0.07  -0.01   0.07    -0.11  -0.12   0.09    -0.02  -0.03   0.02
    12   6    -0.05   0.04   0.00    -0.05   0.05  -0.12    -0.02   0.00   0.03
    13   6    -0.03   0.03  -0.02    -0.00   0.01  -0.14    -0.03   0.01   0.05
    14   6    -0.07   0.03  -0.08     0.09   0.02   0.02    -0.07   0.01  -0.04
    15   6    -0.09   0.05  -0.11     0.09   0.01   0.03    -0.03   0.05  -0.06
    16   6     0.01  -0.02  -0.05     0.16  -0.02   0.04     0.11  -0.02  -0.02
    17   6     0.14  -0.13  -0.06     0.02   0.05   0.01     0.10  -0.02  -0.03
    18   6     0.12  -0.14  -0.07    -0.04   0.02   0.02     0.12  -0.02  -0.03
    19   6     0.08  -0.13  -0.07    -0.02  -0.01  -0.03     0.00   0.07   0.10
    20   6     0.02   0.06   0.06     0.05   0.00  -0.03    -0.04  -0.00   0.02
    21   6     0.00   0.04   0.07     0.01  -0.02  -0.15    -0.01   0.03   0.13
    22   6    -0.01  -0.04   0.08     0.01  -0.03  -0.10    -0.01   0.06   0.16
    23   6    -0.08  -0.04   0.17    -0.04  -0.01  -0.00     0.04   0.01   0.05
    24   6    -0.03  -0.05   0.07    -0.07  -0.00   0.05     0.16  -0.01  -0.07
    25   6    -0.08  -0.02   0.05    -0.04  -0.05   0.08     0.18  -0.01  -0.07
    26   6    -0.03   0.00   0.02     0.18  -0.00   0.06     0.14  -0.02  -0.04
    27   6     0.02   0.03   0.02     0.18   0.03   0.08    -0.06  -0.07  -0.05
    28   6    -0.00   0.04   0.02     0.15   0.04   0.08    -0.09  -0.02  -0.06
    29   6    -0.09  -0.04   0.14    -0.07  -0.03   0.01    -0.01  -0.01   0.04
    30   6     0.06  -0.12  -0.07    -0.03   0.02  -0.01    -0.04   0.09   0.06
    31   6     0.08  -0.14  -0.07    -0.02  -0.00  -0.02     0.01   0.07   0.10
    32   6     0.11  -0.14  -0.07    -0.04   0.02   0.02     0.12  -0.02  -0.03
    33   6     0.13  -0.13  -0.06     0.02   0.05   0.01     0.11  -0.02  -0.03
    34   6     0.07  -0.09  -0.05    -0.04   0.12  -0.02    -0.02   0.07  -0.03
    35   6     0.05   0.08  -0.02    -0.04  -0.02  -0.00    -0.05  -0.03   0.01
    36   6     0.08   0.11   0.01    -0.04  -0.06  -0.00    -0.08  -0.12  -0.02
    37   6     0.06   0.04   0.01    -0.02  -0.02  -0.02    -0.05  -0.01   0.01
    38   6     0.03   0.06   0.06     0.04   0.00  -0.03    -0.04   0.00   0.03
    39   6     0.00   0.04   0.07     0.00  -0.02  -0.15    -0.00   0.04   0.14
    40   6    -0.01  -0.04   0.07     0.00  -0.03  -0.09    -0.00   0.06   0.15
    41   6    -0.02   0.00   0.02     0.16  -0.01   0.07     0.12  -0.03  -0.04
    42   6     0.01  -0.03  -0.05     0.17  -0.02   0.04     0.12  -0.02  -0.02
    43   6    -0.09   0.05  -0.10     0.10   0.01   0.03    -0.02   0.04  -0.06
    44   6    -0.06   0.06  -0.10    -0.03   0.11  -0.04    -0.05   0.09  -0.07
    45   6    -0.04   0.12  -0.08    -0.05   0.08  -0.10    -0.03   0.05  -0.04
    46   6    -0.02   0.10  -0.03    -0.06  -0.04   0.00    -0.03  -0.01   0.01
    47   6     0.05   0.06   0.03    -0.02  -0.06   0.06    -0.10  -0.12  -0.03
    48   6    -0.06  -0.01   0.05    -0.13  -0.12   0.10     0.01  -0.05  -0.03
    49   6    -0.07  -0.00   0.06    -0.12  -0.12   0.09    -0.03  -0.03   0.02
    50   6    -0.08  -0.04   0.14    -0.06  -0.03   0.00    -0.02  -0.01   0.04
    51   6    -0.05   0.04   0.00    -0.04   0.05  -0.13    -0.02   0.01   0.02
    52   6    -0.03   0.03  -0.01     0.00   0.01  -0.14    -0.03   0.01   0.04
    53   6    -0.08   0.03  -0.08     0.10   0.01   0.03    -0.08   0.01  -0.05
    54   6    -0.01   0.04   0.01     0.15   0.04   0.08    -0.09  -0.03  -0.06
    55   6     0.01   0.03   0.02     0.17   0.02   0.08    -0.05  -0.07  -0.05
    56   6    -0.08  -0.04   0.17    -0.04  -0.01   0.00     0.04   0.01   0.04
    57   6    -0.06  -0.01   0.05    -0.11  -0.12   0.10     0.02  -0.05  -0.03
    58   6     0.06  -0.09  -0.04    -0.03   0.08   0.00    -0.04   0.08   0.02
    59   6    -0.04  -0.06   0.07    -0.07   0.00   0.05     0.17  -0.02  -0.08
    60   6    -0.08  -0.02   0.05    -0.03  -0.05   0.08     0.17  -0.01  -0.07
    61   6    -0.03   0.01   0.02    -0.05   0.01   0.01    -0.08   0.03   0.02
    62   6    -0.03   0.01   0.04    -0.03   0.01   0.01    -0.06   0.03   0.03
    63   6     0.01  -0.01  -0.03    -0.03  -0.06  -0.00    -0.03  -0.06  -0.02
    64   1     0.04  -0.02  -0.05     0.01  -0.07   0.02     0.03  -0.09  -0.02
    65   1     0.03   0.01  -0.02     0.00  -0.08  -0.00     0.02  -0.08  -0.01
    66   1    -0.01  -0.03  -0.04    -0.06  -0.08  -0.05    -0.09  -0.11  -0.10
    67   6    -0.01  -0.05   0.01     0.03   0.02   0.03     0.05  -0.01   0.01
    68   1     0.15  -0.13  -0.08    -0.12   0.09   0.11    -0.12   0.08   0.05
    69   1    -0.00   0.09   0.11     0.05  -0.10  -0.14     0.08  -0.16  -0.23
    70   1    -0.17  -0.15  -0.03     0.22   0.09   0.09     0.27   0.00   0.12
    71   6     0.02   0.05   0.02     0.04  -0.00  -0.00     0.03  -0.02   0.03
    72   1     0.02   0.10   0.05     0.03   0.03   0.02     0.00  -0.03   0.02
    73   1     0.08   0.04  -0.05     0.08  -0.01  -0.04     0.11  -0.05   0.04
    74   6     0.03   0.00  -0.05     0.01   0.03  -0.02     0.02   0.07  -0.03
    75   1     0.07   0.00  -0.11     0.05   0.02  -0.01     0.09   0.05  -0.03
    76   1    -0.01   0.01  -0.01    -0.00   0.06  -0.02     0.02   0.10  -0.04
                     22                     23                     24
                      A                      A                      A
 Frequencies --    364.3043               371.4832               406.2037
 Red. masses --      2.7107                 1.4331                11.9778
 Frc consts  --      0.2120                 0.1165                 1.1644
 IR Inten    --      0.0000                 0.0000                 0.0000
  Atom  AN      X      Y      Z        X      Y      Z        X      Y      Z
     1   6     0.00   0.00  -0.00     0.01  -0.01  -0.00    -0.12   0.00   0.02
     2   6     0.00   0.00   0.00     0.01   0.00  -0.00    -0.11   0.00  -0.01
     3   6    -0.00  -0.00   0.00     0.00  -0.00  -0.00     0.06  -0.02  -0.01
     4   6    -0.01   0.01  -0.01     0.00  -0.01   0.00     0.12  -0.03  -0.03
     5   6    -0.01   0.01  -0.01     0.00  -0.01   0.00     0.09   0.04  -0.03
     6   6     0.00   0.00  -0.01     0.01  -0.01   0.00    -0.05  -0.01  -0.00
     7   6    -0.00   0.00  -0.00     0.01  -0.01  -0.00    -0.17  -0.03   0.03
     8   6    -0.00   0.00  -0.00     0.01   0.02   0.01    -0.17   0.04   0.01
     9   6     0.00  -0.00  -0.00     0.01   0.02   0.01    -0.15   0.04   0.00
    10   6    -0.00  -0.01   0.00     0.00   0.01  -0.00    -0.09   0.10  -0.02
    11   6    -0.01  -0.01   0.02     0.00   0.00  -0.01     0.09  -0.03  -0.01
    12   6    -0.01   0.00   0.00     0.00  -0.00  -0.00     0.18  -0.03  -0.03
    13   6    -0.01   0.00  -0.01    -0.00   0.00   0.00     0.13   0.02  -0.05
    14   6    -0.01   0.00  -0.01    -0.00   0.00   0.00     0.09   0.13  -0.07
    15   6    -0.01   0.01  -0.01    -0.01   0.00  -0.00     0.08   0.09  -0.05
    16   6     0.02  -0.01  -0.00    -0.02   0.01  -0.00     0.03   0.05  -0.04
    17   6     0.02  -0.01  -0.01    -0.00  -0.00  -0.00    -0.01  -0.04   0.02
    18   6     0.01  -0.01  -0.01     0.01  -0.01  -0.00    -0.04  -0.14   0.04
    19   6     0.00  -0.00  -0.00     0.01  -0.01  -0.01    -0.08  -0.12   0.05
    20   6    -0.00   0.00  -0.00     0.00   0.01   0.01    -0.08   0.09   0.00
    21   6    -0.00   0.00  -0.00     0.00   0.00   0.01     0.02  -0.02   0.00
    22   6    -0.00   0.00   0.01     0.00  -0.01  -0.00     0.00  -0.11   0.04
    23   6    -0.01  -0.00   0.02     0.00  -0.01  -0.00     0.07  -0.15   0.06
    24   6     0.00  -0.01   0.00    -0.00  -0.00  -0.00     0.02  -0.13   0.07
    25   6     0.01  -0.01   0.00    -0.02   0.00   0.00     0.00  -0.03   0.02
    26   6     0.02  -0.00   0.00    -0.03   0.01   0.00    -0.01   0.08   0.01
    27   6     0.01  -0.00   0.00    -0.01   0.01   0.00    -0.04   0.14  -0.03
    28   6    -0.00   0.00  -0.00     0.00   0.01   0.01    -0.02   0.17  -0.03
    29   6    -0.01  -0.01   0.02     0.00  -0.00  -0.01     0.15  -0.10   0.01
    30   6     0.00   0.00   0.00     0.01  -0.02  -0.01    -0.17  -0.03   0.03
    31   6     0.00  -0.00   0.00     0.01  -0.02  -0.01    -0.08  -0.13   0.05
    32   6     0.01  -0.01  -0.00    -0.00  -0.01  -0.00    -0.04  -0.14   0.03
    33   6     0.02  -0.01  -0.01    -0.01   0.00   0.00    -0.01  -0.05   0.02
    34   6     0.01   0.00  -0.01     0.00  -0.01   0.00    -0.05  -0.01  -0.01
    35   6     0.00   0.01  -0.00     0.01  -0.01  -0.00    -0.10   0.01  -0.00
    36   6     0.00   0.00   0.00     0.01   0.01   0.00    -0.14   0.05   0.00
    37   6     0.00   0.01   0.00     0.01   0.00   0.00    -0.17   0.05   0.01
    38   6    -0.00   0.01   0.00     0.01   0.01   0.01    -0.08   0.09  -0.00
    39   6    -0.00   0.01   0.01     0.00  -0.00   0.00     0.02  -0.02   0.00
    40   6    -0.00   0.00   0.02     0.00  -0.01  -0.01     0.00  -0.11   0.04
    41   6     0.02  -0.00  -0.00    -0.03   0.01   0.00    -0.01   0.08   0.02
    42   6     0.02  -0.01  -0.01    -0.02   0.01   0.00     0.02   0.05  -0.04
    43   6    -0.00   0.01  -0.01    -0.01   0.00  -0.00     0.07   0.09  -0.05
    44   6    -0.00   0.01  -0.01    -0.00  -0.01   0.00     0.09   0.04  -0.03
    45   6    -0.00   0.02  -0.02     0.00  -0.01   0.00     0.12  -0.03  -0.03
    46   6    -0.00   0.01  -0.00     0.00  -0.00  -0.00     0.06  -0.03  -0.00
    47   6    -0.00  -0.00   0.00     0.01   0.02  -0.00    -0.09   0.10  -0.02
    48   6    -0.01  -0.01   0.01     0.00   0.01  -0.00     0.03   0.00   0.01
    49   6    -0.01  -0.01   0.01     0.00   0.00  -0.01     0.08  -0.03  -0.01
    50   6    -0.01  -0.00   0.01     0.00  -0.01  -0.00     0.15  -0.10   0.01
    51   6    -0.01   0.01  -0.01     0.00  -0.01   0.00     0.18  -0.04  -0.03
    52   6    -0.01   0.01  -0.02    -0.00  -0.00   0.01     0.12   0.02  -0.06
    53   6    -0.01   0.00  -0.02    -0.01   0.00  -0.00     0.09   0.13  -0.08
    54   6    -0.00   0.00  -0.01    -0.01   0.00   0.00    -0.02   0.17  -0.03
    55   6     0.01  -0.01  -0.00    -0.02   0.01  -0.00    -0.04   0.14  -0.02
    56   6    -0.00  -0.00   0.02    -0.00  -0.01  -0.01     0.06  -0.15   0.06
    57   6    -0.00  -0.01   0.01    -0.00   0.01  -0.00     0.03   0.00   0.01
    58   6     0.00   0.00  -0.00     0.01  -0.02  -0.01    -0.11   0.01   0.02
    59   6     0.01  -0.00   0.00    -0.01  -0.00  -0.00     0.02  -0.13   0.08
    60   6     0.02  -0.00   0.00    -0.02   0.00   0.00    -0.00  -0.03   0.02
    61   6     0.15  -0.03  -0.06    -0.03   0.01  -0.01     0.00  -0.00   0.00
    62   6     0.11  -0.02  -0.12    -0.01   0.01  -0.02     0.00  -0.00   0.00
    63   6     0.02   0.11   0.08    -0.04  -0.08   0.03     0.00   0.00  -0.00
    64   1    -0.12   0.16   0.14    -0.01  -0.09   0.07     0.00   0.00  -0.00
    65   1    -0.08   0.07   0.05    -0.02  -0.13   0.02     0.00   0.00  -0.00
    66   1     0.14   0.21   0.19    -0.07  -0.08  -0.04     0.00   0.00   0.00
    67   6    -0.06   0.09  -0.07     0.08   0.07   0.03    -0.00  -0.00   0.00
    68   1    -0.29   0.22  -0.04    -0.35   0.27   0.26     0.01  -0.01  -0.00
    69   1    -0.12  -0.14  -0.09     0.10  -0.28  -0.37    -0.00   0.02   0.02
    70   1     0.05   0.24  -0.08     0.56   0.26   0.19    -0.02  -0.00  -0.01
    71   6    -0.13  -0.12  -0.01     0.03  -0.03  -0.01    -0.00   0.00  -0.00
[...]
 0023436,0.00013787,0.00004048,0.00001537,-0.00090806,0.00026647,-0.000
 24176,0.00010570,0.00003533,0.00006466,0.00000487,-0.00002625,0.000039
 04,-0.00173888,-0.00050308,-0.00001087,-0.12430830,0.12676142,-0.13739
 936,0.01014471,0.00766512,0.00992550,-0.01835554,0.01754219,-0.0113987
 3,0.00204196,0.00084421,0.00056092,-0.00035059,0.00050357,0.00018614,-
 0.00180110,0.00056753,-0.00054631,-0.00032844,0.00010784,-0.00045298,-
 0.00010106,-0.00038407,0.00020739,-0.00052411,-0.00047872,0.00004671,0
 .00007132,0.00022721,-0.00026913,-0.00366194,-0.00336449,-0.00600551,0
 .00036548,-0.00232905,0.00188457,-0.00042363,-0.00067382,-0.00065402,0
 .32394082,-0.07241531,0.33862593,-0.00001705,-0.00000614,0.00002648,0.
 00001171,-0.00002810,0.00001699,0.00003297,-0.00006037,-0.00000300,-0.
 00004247,-0.00001469,-0.00000804,0.00000484,-0.00000688,0.00000098,-0.
 00000515,-0.00001252,0.00000087,-0.00001196,0.00000400,-0.00001647,-0.
 00001522,-0.00000853,-0.00002666,-0.00026383,0.00008011,0.00006433,-0.
 00085451,0.00018813,0.00022518,-0.00023784,0.00004947,-0.00006334,0.00
 002178,0.00001684,0.00000686,-0.00001100,-0.00001527,-0.00000302,0.000
 00825,-0.00000907,-0.00000019,-0.00001224,-0.00000947,0.00000264,0.000
 00013,-0.00001318,-0.00000656,0.00000064,-0.00000974,0.00000163,-0.000
 00450,-0.00000922,0.00000003,-0.00000315,-0.00001154,-0.00000374,-0.00
 000172,-0.00002860,-0.00001730,-0.00001674,-0.00001198,0.00001244,-0.0
 0000206,-0.00000265,-0.00001101,0.00000191,-0.00000768,0.00000031,0.00
 000081,-0.00001426,0.00000436,0.00000485,-0.00001274,0.00000105,-0.000
 00160,-0.00001525,-0.00000156,-0.00000047,-0.00001415,0.00000368,0.000
 00829,-0.00001962,-0.00000028,-0.00003279,-0.00000609,0.00001245,0.000
 01628,-0.00001157,0.00001069,0.00002176,-0.00000711,0.00001149,0.00003
 220,0.00015900,0.00004106,-0.00004561,-0.00000215,-0.00001568,0.000040
 14,0.00001589,-0.00000895,0.00001924,0.00000110,-0.00000059,0.00000751
 ,-0.00000844,-0.00000357,-0.00000293,-0.00000698,0.00000302,-0.0000044
 8,-0.00001509,0.00000670,0.00001542,0.00000837,-0.00000616,-0.00002562
 ,-0.00000375,-0.00001364,-0.00005636,-0.00017350,-0.00038042,-0.000146
 87,-0.00000098,0.00002270,0.00000517,0.00002034,-0.00006667,-0.0000157
 1,-0.00001343,0.00001587,0.00001117,0.00001101,0.00000197,0.00000206,-
 0.00001115,0.00000177,0.00000629,-0.00001073,0.00000083,0.00000766,-0.
 00001062,-0.00000097,0.00001114,-0.00001526,-0.00000171,0.00000929,-0.
 00000415,0.00000001,-0.00000332,-0.00000541,-0.00000659,0.00000858,0.0
 0001599,0.00000533,-0.00000504,0.00004841,-0.00001189,-0.00018536,-0.0
 0004165,0.00015042,-0.00073466,-0.00045115,0.00057414,0.00010119,0.000
 02773,0.00014066,0.00039750,-0.00041219,-0.00039571,-0.00001101,-0.000
 00723,-0.00002131,-0.00012972,0.00004728,0.00004453,-0.00084309,-0.000
 19465,0.00010767,0.00916769,0.01412339,0.00877822,0.00185780,-0.000466
 68,-0.00912849,-0.00126261,0.00113756,0.00258995,-0.00050260,0.0000344
 5,-0.00036709,0.00075453,0.00045337,-0.00141838,-0.00109888,0.00079496
 ,0.00042678,0.00057981,0.00147119,0.00019584,0.00007511,0.00042374,-0.
 00030735,0.00016742,-0.00003492,0.00008847,-0.00021895,-0.00032975,0.0
 0048310,0.00022053,0.00085251,0.00041590,0.00010155,0.00005455,0.00066
 333,-0.00042036,0.00043688,0.00004069,-0.06775887,-0.07028285,-0.02926
 723,0.06501550,0.00002168,0.00000119,0.00001512,0.00000668,-0.00000627
 ,0.00001203,0.00001699,-0.00002240,-0.00000330,0.00000885,-0.00000233,
 -0.00000419,0.00000232,-0.00000534,-0.00000134,0.00000072,-0.00000489,
 0.00000442,0.00000286,0.00000713,-0.00001236,-0.00000597,0.00000754,-0
 .00001095,0.00002320,-0.00000995,-0.00000798,-0.00008817,0.00002199,0.
 00002837,-0.00004511,0.00000339,-0.00002245,-0.00000223,0.00001773,0.0
 0000959,-0.00000139,0.00000386,-0.00000351,0.00000947,-0.00000011,-0.0
 0000042,-0.00000756,0.00000503,0.00000648,-0.00000470,0.00000148,0.000
 00096,0.00000151,0.00000216,-0.00000368,0.00000526,-0.00000297,0.00000
 563,0.00000193,-0.00000387,-0.00000314,0.00001413,-0.00002932,-0.00000
 740,0.00000858,-0.00001582,-0.00000101,0.00000186,-0.00001221,0.000003
 59,-0.00001098,0.00000586,0.00000196,-0.00000343,0.00000021,0.00000074
 ,0.00000552,0.00000027,-0.00000178,0.00000806,-0.00000049,-0.00000100,
 -0.00000104,-0.00000144,0.00000337,-0.00000138,0.00000208,0.00000267,0
 .00003589,0.00002069,0.00002962,-0.00000484,-0.00001421,-0.00000939,0.
 00000054,0.00000039,-0.00000361,-0.00003493,0.00007237,0.00003592,0.00
 001550,0.00011256,0.00002342,0.00000827,0.00000952,-0.00000202,-0.0000
 0905,-0.00000018,-0.00000570,-0.00000717,0.00000792,0.00000155,-0.0000
 0172,0.00000046,0.00000203,-0.00001758,0.00000367,-0.00000306,-0.00000
 121,-0.00001003,-0.00000287,-0.00001922,-0.00000691,-0.00000345,0.0004
 4801,-0.00033487,-0.00026605,-0.00021091,-0.00011087,0.00003091,-0.000
 00472,0.00002318,-0.00007041,-0.00001882,-0.00000742,0.00000244,0.0000
 0639,-0.00001546,-0.00000467,-0.00001693,-0.00000399,0.00000564,-0.000
 01184,0.00000240,0.00000235,-0.00000695,-0.00000051,-0.00000521,-0.000
 00261,-0.00000062,-0.00000689,0.00000972,-0.00000115,-0.00000430,-0.00
 000202,-0.00000180,0.00000903,-0.00000527,0.00002185,0.00000346,0.0000
 0149,-0.00000015,-0.00001530,-0.00001731,-0.00003932,0.00003099,-0.000
 82382,-0.00031477,0.00051225,0.00009022,0.00000329,0.00008130,-0.00012
 211,-0.00022933,-0.00021296,0.00000082,-0.00001542,0.00000073,-0.00008
 936,-0.00003013,0.00003099,-0.00028132,-0.00020101,-0.00001084,-0.0060
 6536,-0.02250521,-0.00348677,0.00266417,-0.00259979,0.00231968,-0.0011
 5868,0.00111826,-0.00173620,0.00452398,0.00151041,0.00187474,-0.001540
 77,-0.00101882,0.00062651,-0.00200897,-0.00020500,-0.00192955,-0.00034
 676,-0.00117706,-0.00026138,0.00014343,0.00022775,0.00033085,-0.000469
 33,0.00023968,-0.00056544,-0.00017501,-0.00069343,0.00011796,-0.000164
 93,-0.00149450,-0.00003654,-0.00025110,-0.00009416,0.00181779,0.000118
 97,0.00130430,0.00016026,-0.06809475,-0.32081590,-0.04205796,0.0754414
 9,0.35019386,-0.00000549,-0.00000401,-0.00002085,-0.00001072,-0.000003
 20,-0.00001217,-0.00001600,-0.00000292,-0.00004534,-0.00000467,-0.0000
 1222,-0.00000978,-0.00000884,-0.00001544,-0.00002042,-0.00000324,-0.00
 000030,-0.00002993,0.00002637,0.00001450,-0.00002317,-0.00000266,0.000
 01203,0.00001136,0.00002130,0.00001497,-0.00003041,0.00026612,-0.00003
 362,-0.00004829,-0.00006964,0.00001417,-0.00004178,0.00001817,-0.00002
 102,-0.00000102,-0.00001201,-0.00003972,-0.00001769,0.00000373,-0.0000
 1440,-0.00000634,-0.00000575,-0.00001435,-0.00000387,0.00000407,-0.000
 00014,-0.00000192,0.00000313,0.00001065,-0.00001813,-0.00000136,0.0000
 0637,-0.00001097,-0.00001074,0.00001005,-0.00001857,-0.00001364,0.0000
 2255,-0.00000676,0.00000912,0.00003272,-0.00001742,0.00000400,0.000023
 95,-0.00000719,-0.00000225,0.00002042,0.00000221,0.00000046,0.00001058
 ,0.00000420,0.00000248,0.00001015,-0.00000489,-0.00000188,-0.00000293,
 -0.00000447,-0.00000445,-0.00001110,0.00000786,0.00000207,-0.00001016,
 0.00001036,-0.00006117,-0.00001565,-0.00002827,-0.00002590,-0.00003319
 ,0.00002955,0.00000127,-0.00001708,0.00001673,0.00000583,0.00003579,-0
 .00000417,-0.00003624,-0.00004973,0.00003629,0.00000420,0.00000695,0.0
 0000740,0.00000145,0.00000576,0.00001827,0.00000106,-0.00000109,0.0000
 1991,-0.00001000,-0.00001405,0.00001376,-0.00000336,-0.00001458,0.0000
 1490,-0.00002944,-0.00001135,0.00000029,-0.00002049,-0.00001439,-0.000
 00802,0.00045710,0.00051452,-0.00038837,-0.00000204,0.00007112,0.00000
 157,0.00000254,-0.00001225,0.00000663,-0.00000096,0.00002214,0.0000302
 7,-0.00000597,0.00000465,0.00000597,-0.00000589,0.00001080,0.00002226,
 -0.00000478,0.00000100,0.00001505,0.00000283,0.00001098,0.00000923,0.0
 0000192,0.00001171,0.00001483,0.00000370,0.00001457,0.00000107,0.00000
 319,0.00002311,0.00000636,0.00001187,0.00001993,-0.00000822,-0.0000063
 1,0.00002268,0.00001713,0.00002383,0.00003885,-0.00003726,0.00041732,0
 .00010426,-0.00031506,0.00003078,-0.00002519,0.00003144,0.00075124,-0.
 00022353,-0.00004684,-0.00001301,-0.00001128,-0.00000297,-0.00009158,0
 .00001518,-0.00002091,-0.00083384,-0.00021178,0.00019471,0.00801142,0.
 01349707,0.00268621,-0.00822004,0.00109513,0.00659596,0.00102193,0.000
 15046,-0.00276294,-0.00068602,-0.00018225,-0.00010235,0.00001878,0.000
 96997,-0.00282745,0.00015705,0.00077946,0.00134780,-0.00010523,-0.0004
 8074,-0.00021571,0.00005345,-0.00027638,0.00025084,0.00005675,0.000020
 74,0.00005496,0.00002420,0.00013252,-0.00009056,0.00026758,0.00192550,
 0.00032888,-0.00036105,-0.00042872,-0.00062986,0.00104343,0.00011046,0
 .00028894,-0.02770930,-0.04479380,-0.04560025,0.02962010,0.04490496,0.
 04278701,-0.00003879,0.00001610,0.00002660,-0.00046846,0.00034299,0.00
 006421,0.00012158,-0.00005581,-0.00003680,0.00007086,-0.00002024,0.000
 03624,0.00000555,0.00001189,-0.00001307,-0.00001588,-0.00000424,0.0000
 1146,0.00000031,0.00000422,-0.00000067,-0.00019716,0.00016015,0.000121
 83,0.00020786,0.00001322,-0.00045193,0.00056958,-0.00065626,0.00032524
 ,-0.00002989,0.00087247,-0.00048804,0.00007814,0.00002776,0.00005785,-
 0.00006496,-0.00001957,-0.00002540,0.00002416,0.00000023,-0.00001000,-
 0.00001735,0.00001390,0.00001489,0.00000142,0.00000128,-0.00000882,0.0
 0000739,0.00001093,0.00000548,0.00000246,0.00000139,0.00000543,-0.0000
 0786,-0.00000067,0.00000236,-0.00015406,-0.00000974,0.00032205,-0.0000
 2096,0.00001089,0.00000956,-0.00001242,-0.00000122,-0.00000213,0.00000
 070,0.00000805,0.00000032,0.00000080,0.00000156,0.00000857,0.00000726,
 -0.00000050,-0.00000246,-0.00000012,-0.00000322,0.00000699,-0.00000909
 ,0.00000597,0.00000678,-0.00000160,-0.00000680,0.00000404,0.00017335,0
 .00000819,0.00014162,-0.00001785,-0.00007184,0.00001481,0.00016692,0.0
 0028225,-0.00002591,-0.00007428,0.00005704,-0.00021732,0.00004853,0.00
 022390,0.00000791,0.00009090,0.00006666,-0.00003440,0.00001250,0.00000
 680,-0.00000673,-0.00001269,0.00000275,0.00000206,-0.00001854,-0.00000
 408,0.00000503,-0.00002359,-0.00000764,0.00000328,-0.00002333,0.000006
 73,-0.00004430,0.00019957,-0.00000877,0.00014782,-0.00531838,-0.002258
 81,0.00341661,0.00017939,0.00002675,0.00025326,0.00014150,0.00004742,-
 0.00028691,0.00001328,0.00002286,0.00002185,0.00000769,-0.00000240,0.0
 0000430,-0.00002412,-0.00000344,0.00001038,-0.00000517,0.00000356,0.00
 000745,-0.00000414,0.00000948,-0.00000173,0.00000667,-0.00000844,-0.00
 000517,0.00001567,0.00000414,0.00000470,-0.00003148,-0.00000762,0.0000
 0262,-0.00000479,-0.00000173,0.00002628,-0.00013378,-0.00013056,0.0003
 8273,0.00025015,-0.00025543,-0.00024515,0.00053852,0.00061611,-0.00107
 266,-0.00014528,-0.00050255,-0.00020037,-0.00528053,0.00040516,0.00222
 711,-0.00007577,-0.00005597,-0.00003798,-0.00031925,-0.00003348,0.0002
 1397,-0.00364730,-0.00395656,-0.00166340,-0.01551288,-0.00259116,-0.00
 894819,-0.00123998,-0.00023058,0.00307605,0.00497477,0.00161839,-0.005
 89002,0.00100044,0.00083948,0.00009714,-0.00065846,-0.00056888,0.00033
 654,0.00208171,-0.00047592,0.00131231,0.00001437,-0.00021785,0.0000481
 5,0.00003718,0.00003577,0.00011229,0.00005131,-0.00026453,0.00010493,0
 .00006956,0.00009972,-0.00034109,0.00126930,-0.00079668,-0.00032184,-0
 .00012080,-0.00014946,0.00020593,-0.00072013,-0.00087079,-0.00041352,-
 0.23204287,-0.03755233,-0.15685654,-0.00374240,-0.00149120,-0.00394991
 ,0.25779502,0.00001357,0.00000989,-0.00001991,0.00007358,-0.00004438,-
 0.00000150,0.00006911,-0.00005735,0.00000587,-0.00000262,0.00003981,0.
 00001719,-0.00000150,-0.00000496,-0.00000384,-0.00000806,-0.00000545,-
 0.00000566,-0.00002061,-0.00000876,0.00002711,-0.00001064,0.00002243,-
 0.00001856,0.00004180,-0.00010069,-0.00001302,0.00042865,0.00029959,0.
 00008953,-0.00030713,0.00004675,0.00016330,-0.00000260,-0.00004444,-0.
 00003866,-0.00000823,-0.00002363,-0.00000518,-0.00000380,-0.00000769,-
 0.00000502,-0.00000866,-0.00001036,0.00000423,-0.00000182,-0.00000047,
 -0.00000342,0.00000389,0.00000449,0.00000140,0.00000083,-0.00000291,0.
 00000104,0.00000185,-0.00000494,-0.00000344,0.00004343,-0.00001455,-0.
 00006452,0.00000735,0.00000696,0.00000203,0.00000044,-0.00000481,0.000
 00183,-0.00000161,0.00000237,-0.00000153,0.00000044,0.00000364,0.00000
 307,0.00000093,0.00000152,-0.00000250,0.00000228,-0.00000726,0.0000001
 9,-0.00000093,-0.00000189,-0.00000124,-0.00000629,0.00000865,0.0000017
 0,0.00003341,0.00000082,0.00002565,-0.00000155,-0.00002384,0.00000950,
 0.00006839,0.00014886,-0.00002905,-0.00046002,-0.00045223,-0.00022595,
 -0.00016433,0.00003258,0.00005266,0.00005270,0.00006053,0.00001729,0.0
 0000652,0.00000050,0.00000050,0.00000322,-0.00000039,0.00000078,0.0000
 0415,-0.00000916,-0.00000367,0.00000780,0.00000019,0.00000093,-0.00002
 971,-0.00000044,-0.00001092,0.00021752,0.00003004,0.00012459,-0.001540
 82,-0.00140594,0.00146649,-0.00004599,-0.00021447,0.00060786,0.0000695
 5,0.00012433,-0.00008558,0.00008233,0.00007123,-0.00006065,-0.00000703
 ,-0.00000328,0.00000466,0.00000222,-0.00000316,0.00000092,0.00000161,-
 0.00000979,0.00000104,-0.00000215,0.00000208,0.00000333,-0.00000067,0.
 00000156,0.00000342,0.00000146,0.00000030,0.00000344,-0.00000031,-0.00
 000637,-0.00000439,-0.00001029,-0.00001272,0.00001670,-0.00008310,-0.0
 0011183,0.00017015,0.00022139,-0.00015041,-0.00040319,0.00009003,0.000
 17411,0.00032265,-0.00000719,-0.00012022,-0.00008564,-0.00022760,0.001
 45861,-0.00024579,-0.00001900,-0.00001402,-0.00000683,-0.00031374,-0.0
 0046839,-0.00005648,0.00138382,-0.00059491,-0.00162609,0.01863145,0.01
 054112,0.01450533,0.00015200,-0.00054830,-0.00138057,0.00037269,-0.005
 06301,0.00119281,-0.00058110,0.00073158,-0.00033974,0.00050664,-0.0003
 5147,-0.00004376,-0.00015790,0.00028608,0.00025754,0.00074694,-0.00127
 190,0.00098766,-0.00039591,-0.00060845,0.00007355,0.00036380,0.0001166
 9,-0.00002769,-0.00003114,-0.00011598,0.00020935,0.00021799,-0.0034779
 3,0.00167042,0.00029932,-0.00245283,-0.00201681,0.00114095,-0.00085292
 ,0.00023541,-0.04526421,-0.06525074,-0.03336952,-0.02304860,-0.0028930
 9,-0.01772082,0.04741078,0.07260542,0.00001145,-0.00000017,-0.00001916
 ,0.00000195,-0.00001095,0.00000299,-0.00004279,0.00001713,0.00007044,0
 .00005570,0.00000282,0.00002914,-0.00001908,0.00000584,0.00001875,-0.0
 0002304,-0.00001476,-0.00002272,0.00001772,-0.00000667,0.00002529,0.00
 014896,-0.00012527,-0.00010314,0.00015261,-0.00020209,-0.00003909,-0.0
 0033211,0.00073109,0.00007544,-0.00012344,0.00037679,0.00005537,0.0000
 0586,0.00000033,0.00001659,-0.00002231,-0.00002659,-0.00001284,0.00001
 024,0.00000215,-0.00000239,-0.00000929,0.00000452,0.00000692,0.0000064
 9,0.00001130,0.00000319,0.00000560,0.00000512,0.00000504,0.,-0.0000066
 0,0.00000445,-0.00001013,-0.00002964,0.00001217,0.00006042,-0.00001407
 ,-0.00014032,-0.00000771,0.00002221,-0.00000329,-0.00002119,0.00000519
 ,-0.00001356,0.00000394,-0.00000126,0.00000130,0.00000818,0.00000387,0
 .00001051,0.00000303,-0.00000219,-0.00000402,-0.00000356,-0.00000602,0
 .00000100,-0.00001206,-0.00000189,-0.00000012,0.00001400,0.00000940,-0
 .00000768,-0.00000513,-0.00007359,-0.00008241,-0.00000179,-0.00002688,
 0.00002315,0.00010120,0.00013072,0.00002634,-0.00026497,-0.00024946,-0
 .00003024,-0.00010128,-0.00020958,-0.00011305,0.00001115,-0.00001262,-
 0.00006453,0.00000349,0.00000516,-0.00000963,0.00000949,0.00000032,-0.
 00000368,-0.00000726,0.00000040,-0.00000145,-0.00000989,0.00000358,-0.
 00000017,-0.00000856,0.00002917,-0.00001540,0.00005679,0.00002097,0.00
 005641,-0.00019206,-0.00083177,0.00095251,-0.00012307,0.00012822,0.000
 22339,-0.00008460,-0.00000693,0.00006127,-0.00002030,0.00000491,0.0000
 4836,-0.00001572,0.00000615,0.00000422,-0.00001464,-0.00000712,0.00000
 070,-0.00000926,-0.00000064,0.00000117,-0.00000346,0.00000195,-0.00000
 461,0.00001584,-0.00000584,0.00000160,0.00001069,-0.00000180,-0.000004
 88,-0.00001202,-0.00002651,-0.00001937,0.00002899,-0.00001951,-0.00002
 056,0.00008368,0.00013228,-0.00018526,-0.00009922,0.00014753,0.0000370
 9,0.00094324,0.00001711,0.00012622,-0.00039877,-0.00025423,-0.00031723
 ,-0.00104538,0.00073773,-0.00009072,-0.00004224,-0.00001236,-0.0000529
 2,-0.00065784,-0.00051920,-0.00041040,0.00100253,-0.00070475,-0.001039
 45,-0.00673179,-0.00284369,-0.00964633,0.00223077,-0.00079241,-0.00254
 163,-0.00558274,0.00307094,0.00860365,0.00027744,0.00040330,0.00080404
 ,0.00249473,-0.00053533,0.00263970,-0.00054772,-0.00024825,-0.00059008
 ,-0.00008362,0.00120068,-0.00051390,-0.00002268,-0.00004144,0.00034438
 ,-0.00015326,-0.00012190,-0.00016731,0.00000167,0.00045319,-0.00061198
 ,0.00122449,-0.00275467,0.00005382,0.00003195,-0.00052916,-0.00080423,
 -0.00081573,-0.00057876,-0.00024925,-0.15650003,-0.02921826,-0.1479587
 2,-0.00323796,-0.00226522,-0.00139964,0.16838546,0.03564802,0.15297077
 \\-0.00000003,0.,-0.00000013,0.00000042,0.00000019,-0.00000017,-0.0000
 0028,0.00000040,0.00000014,0.00000029,0.00000029,-0.00000013,-0.000000
 10,0.00000019,0.,0.00000029,0.00000014,0.00000007,0.00000019,-0.000000
 02,0.,-0.00000010,-0.00000008,-0.00000007,-0.00000010,-0.00000021,0.00
 000006,-0.00000161,0.00000014,0.00000067,0.00000112,0.00000003,-0.0000
 0088,0.00000042,0.00000031,-0.00000024,0.00000006,-0.00000067,-0.00000
 028,-0.00000013,0.00000025,0.00000009,0.00000005,-0.00000018,-0.000000
 36,0.00000006,0.00000017,-0.00000006,0.,0.00000004,-0.00000011,0.00000
 004,0.00000013,-0.00000012,-0.00000004,0.00000008,-0.00000014,-0.00000
 040,-0.00000029,-0.00000006,-0.00000015,0.00000026,-0.00000025,-0.0000
 0001,0.,0.,-0.00000002,0.00000019,0.00000005,-0.00000018,0.00000001,-0
 .00000023,-0.00000006,0.00000022,0.00000004,0.00000003,-0.00000004,-0.
 00000023,-0.00000015,0.00000031,-0.00000018,0.00000002,-0.00000005,-0.
 00000008,-0.00000014,-0.00000093,-0.00000009,-0.00000004,0.00000055,-0
 .00000070,-0.00000014,0.00000010,0.00000058,-0.00000059,-0.00000064,-0
 .00000077,0.00000999,-0.00000134,0.00000267,0.00000095,0.00000085,0.00
 000046,0.00000006,-0.00000008,0.00000015,-0.00000019,0.00000002,-0.000
 00017,0.00000027,-0.00000023,0.00000011,-0.00000011,0.00000034,-0.0000
 0023,0.00000050,0.00000046,0.00000010,-0.00000025,-0.00000005,0.000000
 51,0.00000518,-0.00000340,-0.00000018,0.00000113,0.00000705,-0.0000047
 6,-0.00000115,-0.00000254,-0.00000092,-0.00000060,-0.00000099,-0.00000
 060,0.00000013,0.00000041,0.00000013,-0.00000025,-0.00000009,-0.000000
 26,0.00000004,-0.00000015,0.00000003,-0.00000020,0.00000003,-0.0000001
 8,0.00000006,0.00000001,0.00000005,-0.00000007,-0.00000012,-0.00000002
 ,0.00000003,-0.00000001,-0.00000026,-0.00000032,-0.00000022,-0.0000001
 8,-0.00000078,0.00000120,0.00000036,0.00000039,-0.00000068,-0.00000061
 ,0.00000101,0.00000194,0.00000130,-0.00001051,0.00000046,0.00000030,0.
 00000082,-0.00000108,0.00000065,-0.00000034,-0.00000028,0.00000044,0.0
 0000008,-0.00000035,-0.00000047,-0.00000131,-0.00000076,0.00000229,-0.
 00000302,0.00000219,-0.00000213,0.00000076,-0.00000081,0.00000012,0.00
 000162,0.00000187,0.00000168,0.00000114,-0.00000020,0.00000136,0.00000
 028,-0.00000065,-0.00000002,0.00000097,-0.00000113,0.00000038,-0.00000
 295,-0.00000028,0.00000266,0.00000177,-0.00000230,0.,0.00000065,-0.000
 00147,-0.00000133,-0.00000073,0.00000115,0.00000064,-0.00000232,0.0000
 0223,-0.00000070,0.00000045,-0.00000028,-0.00000005,-0.00000055,-0.000
 00203,0.00000014,0.00000014,0.,0.00000198,0.00000164,0.00000184,-0.000
 00055,-0.00000317,-0.00000145,-0.00000133\\\@


 ON INDUCTION, OR "WHY DO YOU BELIEVE THE SUN WILL RISE TOMORROW?":

 ... THE FARMER WHO HAS FED THE CHICKEN EVERY DAY THROUGHOUT ITS
 LIFE AT LAST WRINGS ITS NECK INSTEAD, SHOWING THAT MORE REFINED VIEWS
 AS TO THE UNIFORMITY OF NATURE WOULD HAVE BEEN USEFUL TO THE CHICKEN.

                               -- BERTRAND RUSSELL
 Job cpu time:       0 days  0 hours  0 minutes  1.5 seconds.
 Elapsed time:       0 days  0 hours  8 minutes 56.6 seconds.
 File lengths (MBytes):  RWF=     22 Int=      0 D2E=      0 Chk=      3 Scr=      2
 Normal termination of Gaussian 16 at Tue May 27 11:49:55 2025.
