 Entering Gaussian System, Link 0=/mlatom/software/Gaussian/g16-avx2/g16
 Input=gaussian.com
 Output=gaussian.log
 Initial command:
 /mlatom/software/Gaussian/g16-avx2/l1.exe "/mlatom/home/qhzhang/git/ts-analysis/calculations/C60/ts_b3lyp_d4/mlatom_d4/Gau-369340.inp" -scrdir="/mlatom/home/qhzhang/git/ts-analysis/calculations/C60/ts_b3lyp_d4/mlatom_d4/"
 Entering Link 1 = /mlatom/software/Gaussian/g16-avx2/l1.exe PID=    369341.
  
 Copyright (c) 1988,1990,1992,1993,1995,1998,2003,2009,2016,
            Gaussian, Inc.  All Rights Reserved.
  
 This is part of the Gaussian(R) 16 program.  It is based on
 the Gaussian(R) 09 system (copyright 2009, Gaussian, Inc.),
 the Gaussian(R) 03 system (copyright 2003, Gaussian, Inc.),
 the Gaussian(R) 98 system (copyright 1998, Gaussian, Inc.),
 the Gaussian(R) 94 system (copyright 1995, Gaussian, Inc.),
 the Gaussian 92(TM) system (copyright 1992, Gaussian, Inc.),
 the Gaussian 90(TM) system (copyright 1990, Gaussian, Inc.),
 the Gaussian 88(TM) system (copyright 1988, Gaussian, Inc.),
 the Gaussian 86(TM) system (copyright 1986, Carnegie Mellon
 University), and the Gaussian 82(TM) system (copyright 1983,
 Carnegie Mellon University). Gaussian is a federally registered
 trademark of Gaussian, Inc.
  
 This software contains proprietary and confidential information,
 including trade secrets, belonging to Gaussian, Inc.
  
 This software is provided under written license and may be
 used, copied, transmitted, or stored only in accord with that
 written license.
  
 The following legend is applicable only to US Government
 contracts under FAR:
  
                    RESTRICTED RIGHTS LEGEND
  
 Use, reproduction and disclosure by the US Government is
 subject to restrictions as set forth in subparagraphs (a)
 and (c) of the Commercial Computer Software - Restricted
 Rights clause in FAR 52.227-19.
  
 Gaussian, Inc.
 340 Quinnipiac St., Bldg. 40, Wallingford CT 06492
  
  
 ---------------------------------------------------------------
 Warning -- This program may not be used in any manner that
 competes with the business of Gaussian, Inc. or will provide
 assistance to any competitor of Gaussian, Inc.  The licensee
 of this program is prohibited from giving any competitor of
 Gaussian, Inc. access to this program.  By using this program,
 the user acknowledges that Gaussian, Inc. is engaged in the
 business of creating and licensing software in the field of
 computational chemistry and represents and warrants to the
 licensee that it is not a competitor of Gaussian, Inc. and that
 it will not use this program in any manner prohibited above.
 ---------------------------------------------------------------
  

 Cite this work as:
 Gaussian 16, Revision A.03,
 M. J. Frisch, G. W. Trucks, H. B. Schlegel, G. E. Scuseria, 
 M. A. Robb, J. R. Cheeseman, G. Scalmani, V. Barone, 
 G. A. Petersson, H. Nakatsuji, X. Li, M. Caricato, A. V. Marenich, 
 J. Bloino, B. G. Janesko, R. Gomperts, B. Mennucci, H. P. Hratchian, 
 J. V. Ortiz, A. F. Izmaylov, J. L. Sonnenberg, D. Williams-Young, 
 F. Ding, F. Lipparini, F. Egidi, J. Goings, B. Peng, A. Petrone, 
 T. Henderson, D. Ranasinghe, V. G. Zakrzewski, J. Gao, N. Rega, 
 G. Zheng, W. Liang, M. Hada, M. Ehara, K. Toyota, R. Fukuda, 
 J. Hasegawa, M. Ishida, T. Nakajima, Y. Honda, O. Kitao, H. Nakai, 
 T. Vreven, K. Throssell, J. A. Montgomery, Jr., J. E. Peralta, 
 F. Ogliaro, M. J. Bearpark, J. J. Heyd, E. N. Brothers, K. N. Kudin, 
 V. N. Staroverov, T. A. Keith, R. Kobayashi, J. Normand, 
 K. Raghavachari, A. P. Rendell, J. C. Burant, S. S. Iyengar, 
 J. Tomasi, M. Cossi, J. M. Millam, M. Klene, C. Adamo, R. Cammi, 
 J. W. Ochterski, R. L. Martin, K. Morokuma, O. Farkas, 
 J. B. Foresman, and D. J. Fox, Gaussian, Inc., Wallingford CT, 2016.
 
 ******************************************
 Gaussian 16:  ES64L-G16RevA.03 25-Dec-2016
                 6-Mar-2024 
 ******************************************
 %nproc=1
 Will use up to    1 processors via shared memory.
 ----------------------------------------------------------------------
 #p freq external='/mlatom/software/miniconda3/bin/python /mlatom/softw
 are/mlatom/mlatom/interfaces/gaussian_interface.py model_predict_kwarg
 s'
 ----------------------------------------------------------------------
 1/10=4,18=10,30=1,38=1/1,3;
 2/12=2,17=6,18=5,40=1/2;
 3/11=9,25=1,30=1,41=9900000,43=2,71=2,140=1/1;
 4/20=17,22=2,24=3,113=1,114=1/2;
 6/7=2,8=2,9=2,10=2/1;
 7/8=1,25=1,44=-1/16;
 1/10=4,18=10,30=1/3;
 99//99;
 Leave Link    1 at Wed Mar  6 04:39:42 2024, MaxMem=           0 cpu:               0.0 elap:               1.1
 (Enter /mlatom/software/Gaussian/g16-avx2/l101.exe)
 ------------------------------------
 968f396f-a0f2-4fd2-8798-005b64a49a70
 ------------------------------------
 Symbolic Z-matrix:
 Charge =  0 Multiplicity = 1
 C                    -1.94014   2.30756  -2.39925 
 C                    -0.51525   2.31009  -2.6794 
 C                     0.09245   1.17671  -3.22908 
 C                    -0.70661  -0.00004  -3.52699 
 C                    -2.07722  -0.00004  -3.26353 
 C                    -2.70651   1.17644  -2.68588 
 C                    -2.15595   3.03442  -1.15836 
 C                    -0.86275   3.48324  -0.67172 
 C                     0.14861   3.02996  -1.61379 
 C                     1.38577   2.5821   -1.14265 
 C                     1.3854    0.73267  -2.74854 
 C                     0.09244  -1.17679  -3.22906 
 C                    -0.51526  -2.31016  -2.67935 
 C                    -1.94015  -2.30761  -2.39919 
 C                    -2.70651  -1.1765   -2.68585 
 C                    -3.71876  -0.72732  -1.74719 
 C                    -3.71876   0.7273   -1.7472 
 C                    -3.92574   1.42485  -0.55577 
 C                    -3.12838   2.60146  -0.25543 
 C                    -0.5933    3.4835    0.69679 
 C                    -1.60537   3.03494   1.63769 
 C                    -2.84745   2.60158   1.17109 
 C                    -3.47146   1.42495   1.75151 
 C                    -4.1384    0.69786   0.68463 
 C                    -4.13841  -0.69783   0.68465 
 C                    -3.92575  -1.42485  -0.55574 
 C                    -3.12839  -2.60145  -0.25537 
 C                    -2.15596  -3.03444  -1.15829 
 C                     1.38539  -0.73274  -2.74852 
 C                     0.69961  -3.03013   1.18505 
 C                     1.66607  -2.58207   0.28002 
 C                     2.47441  -1.42061   0.57569 
 C                     2.27545  -0.73391   1.76482 
 C                     1.26069  -1.17681   2.69911 
 C                    -0.93465  -2.30776   2.70388 
 C                    -1.60538  -3.0349    1.63777 
 C                    -0.59332  -3.48349   0.69687 
 C                    -0.86277  -3.48325  -0.67164 
 C                     0.14859  -3.03     -1.61372 
 C                     1.38576  -2.58214  -1.14259 
 C                     2.47441   1.4206    0.57564 
 C                     2.27546   0.73394   1.7648 
 C                     1.2607    1.17686   2.69908 
 C                     0.63438   0.00004   3.27768 
 C                    -0.73356   0.00004   3.55487 
 C                    -1.53505  -1.17659   3.2598 
 C                    -2.84746  -2.60154   1.17116 
 C                    -3.47147  -1.42489   1.75154 
 C                    -2.82765  -0.72728   2.77536 
 C                    -2.82765   0.72736   2.77534 
 C                    -1.53504   1.17667   3.25978 
 C                    -0.93464   2.30783   2.70382 
 C                     0.48996   2.31115   2.42276 
 C                     0.69962   3.03015   1.18498 
 C                     1.66608   2.58206   0.27996 
 C                     2.02045  -1.41916  -1.7224 
 C                     2.02046   1.4191   -1.72242 
 C                     0.48995  -2.3111    2.42282 
 C                     2.82171  -0.72865  -0.68678 
 C                     2.82168   0.7286   -0.68679 
 C                     5.65946   0.71094  -0.21449 
 C                     5.65944  -0.71092  -0.2145 
 C                     6.26709   1.46661   0.94591 
 H                     6.18466   2.54709   0.80093 
 H                     5.77883   1.21743   1.8974 
 H                     7.33116   1.22643   1.06302 
 C                     6.26713  -1.46663   0.94585 
 H                     7.33135  -1.22688   1.06252 
 H                     5.77933  -1.21706   1.89747 
 H                     6.18421  -2.5471    0.80109 
 C                     4.8947   -1.39665  -1.15225 
 H                     4.72589  -0.99498  -2.1436 
 H                     4.81844  -2.47904  -1.09182 
 C                     4.89474   1.3967   -1.15225 
 H                     4.81846   2.47909  -1.09178 
 H                     4.72588   0.99503  -2.14359 
 
 ITRead=  0  0  0  0  0  0  0  0  0  0  0  0  0  0  0  0  0  0  0  0
 ITRead=  0  0  0  0  0  0  0  0  0  0  0  0  0  0  0  0  0  0  0  0
 ITRead=  0  0  0  0  0  0  0  0  0  0  0  0  0  0  0  0  0  0  0  0
 ITRead=  0  0  0  0  0  0  0  0  0  0  0  0  0  0  0  0
 MicOpt= -1 -1 -1 -1 -1 -1 -1 -1 -1 -1 -1 -1 -1 -1 -1 -1 -1 -1 -1 -1
 MicOpt= -1 -1 -1 -1 -1 -1 -1 -1 -1 -1 -1 -1 -1 -1 -1 -1 -1 -1 -1 -1
 MicOpt= -1 -1 -1 -1 -1 -1 -1 -1 -1 -1 -1 -1 -1 -1 -1 -1 -1 -1 -1 -1
 MicOpt= -1 -1 -1 -1 -1 -1 -1 -1 -1 -1 -1 -1 -1 -1 -1 -1
 NAtoms=     76 NQM=       76 NQMF=       0 NMMI=      0 NMMIF=      0
                NMic=       0 NMicF=      0.
                    Isotopes and Nuclear Properties:
 (Nuclear quadrupole moments (NQMom) in fm**2, nuclear magnetic moments (NMagM)
  in nuclear magnetons)

  Atom         1           2           3           4           5           6           7           8           9          10
 IAtWgt=          12          12          12          12          12          12          12          12          12          12
 AtmWgt=  12.0000000  12.0000000  12.0000000  12.0000000  12.0000000  12.0000000  12.0000000  12.0000000  12.0000000  12.0000000
 NucSpn=           0           0           0           0           0           0           0           0           0           0
 AtZEff=  -0.0000000  -0.0000000  -0.0000000  -0.0000000  -0.0000000  -0.0000000  -0.0000000  -0.0000000  -0.0000000  -0.0000000
 NQMom=    0.0000000   0.0000000   0.0000000   0.0000000   0.0000000   0.0000000   0.0000000   0.0000000   0.0000000   0.0000000
 NMagM=    0.0000000   0.0000000   0.0000000   0.0000000   0.0000000   0.0000000   0.0000000   0.0000000   0.0000000   0.0000000
 AtZNuc=   6.0000000   6.0000000   6.0000000   6.0000000   6.0000000   6.0000000   6.0000000   6.0000000   6.0000000   6.0000000

  Atom        11          12          13          14          15          16          17          18          19          20
 IAtWgt=          12          12          12          12          12          12          12          12          12          12
 AtmWgt=  12.0000000  12.0000000  12.0000000  12.0000000  12.0000000  12.0000000  12.0000000  12.0000000  12.0000000  12.0000000
 NucSpn=           0           0           0           0           0           0           0           0           0           0
 AtZEff=  -0.0000000  -0.0000000  -0.0000000  -0.0000000  -0.0000000  -0.0000000  -0.0000000  -0.0000000  -0.0000000  -0.0000000
 NQMom=    0.0000000   0.0000000   0.0000000   0.0000000   0.0000000   0.0000000   0.0000000   0.0000000   0.0000000   0.0000000
 NMagM=    0.0000000   0.0000000   0.0000000   0.0000000   0.0000000   0.0000000   0.0000000   0.0000000   0.0000000   0.0000000
 AtZNuc=   6.0000000   6.0000000   6.0000000   6.0000000   6.0000000   6.0000000   6.0000000   6.0000000   6.0000000   6.0000000

  Atom        21          22          23          24          25          26          27          28          29          30
 IAtWgt=          12          12          12          12          12          12          12          12          12          12
 AtmWgt=  12.0000000  12.0000000  12.0000000  12.0000000  12.0000000  12.0000000  12.0000000  12.0000000  12.0000000  12.0000000
 NucSpn=           0           0           0           0           0           0           0           0           0           0
 AtZEff=  -0.0000000  -0.0000000  -0.0000000  -0.0000000  -0.0000000  -0.0000000  -0.0000000  -0.0000000  -0.0000000  -0.0000000
 NQMom=    0.0000000   0.0000000   0.0000000   0.0000000   0.0000000   0.0000000   0.0000000   0.0000000   0.0000000   0.0000000
 NMagM=    0.0000000   0.0000000   0.0000000   0.0000000   0.0000000   0.0000000   0.0000000   0.0000000   0.0000000   0.0000000
 AtZNuc=   6.0000000   6.0000000   6.0000000   6.0000000   6.0000000   6.0000000   6.0000000   6.0000000   6.0000000   6.0000000

  Atom        31          32          33          34          35          36          37          38          39          40
 IAtWgt=          12          12          12          12          12          12          12          12          12          12
 AtmWgt=  12.0000000  12.0000000  12.0000000  12.0000000  12.0000000  12.0000000  12.0000000  12.0000000  12.0000000  12.0000000
 NucSpn=           0           0           0           0           0           0           0           0           0           0
 AtZEff=  -0.0000000  -0.0000000  -0.0000000  -0.0000000  -0.0000000  -0.0000000  -0.0000000  -0.0000000  -0.0000000  -0.0000000
 NQMom=    0.0000000   0.0000000   0.0000000   0.0000000   0.0000000   0.0000000   0.0000000   0.0000000   0.0000000   0.0000000
 NMagM=    0.0000000   0.0000000   0.0000000   0.0000000   0.0000000   0.0000000   0.0000000   0.0000000   0.0000000   0.0000000
 AtZNuc=   6.0000000   6.0000000   6.0000000   6.0000000   6.0000000   6.0000000   6.0000000   6.0000000   6.0000000   6.0000000

  Atom        41          42          43          44          45          46          47          48          49          50
 IAtWgt=          12          12          12          12          12          12          12          12          12          12
 AtmWgt=  12.0000000  12.0000000  12.0000000  12.0000000  12.0000000  12.0000000  12.0000000  12.0000000  12.0000000  12.0000000
 NucSpn=           0           0           0           0           0           0           0           0           0           0
 AtZEff=  -0.0000000  -0.0000000  -0.0000000  -0.0000000  -0.0000000  -0.0000000  -0.0000000  -0.0000000  -0.0000000  -0.0000000
 NQMom=    0.0000000   0.0000000   0.0000000   0.0000000   0.0000000   0.0000000   0.0000000   0.0000000   0.0000000   0.0000000
 NMagM=    0.0000000   0.0000000   0.0000000   0.0000000   0.0000000   0.0000000   0.0000000   0.0000000   0.0000000   0.0000000
 AtZNuc=   6.0000000   6.0000000   6.0000000   6.0000000   6.0000000   6.0000000   6.0000000   6.0000000   6.0000000   6.0000000

  Atom        51          52          53          54          55          56          57          58          59          60
 IAtWgt=          12          12          12          12          12          12          12          12          12          12
 AtmWgt=  12.0000000  12.0000000  12.0000000  12.0000000  12.0000000  12.0000000  12.0000000  12.0000000  12.0000000  12.0000000
 NucSpn=           0           0           0           0           0           0           0           0           0           0
 AtZEff=  -0.0000000  -0.0000000  -0.0000000  -0.0000000  -0.0000000  -0.0000000  -0.0000000  -0.0000000  -0.0000000  -0.0000000
 NQMom=    0.0000000   0.0000000   0.0000000   0.0000000   0.0000000   0.0000000   0.0000000   0.0000000   0.0000000   0.0000000
 NMagM=    0.0000000   0.0000000   0.0000000   0.0000000   0.0000000   0.0000000   0.0000000   0.0000000   0.0000000   0.0000000
 AtZNuc=   6.0000000   6.0000000   6.0000000   6.0000000   6.0000000   6.0000000   6.0000000   6.0000000   6.0000000   6.0000000

  Atom        61          62          63          64          65          66          67          68          69          70
 IAtWgt=          12          12          12           1           1           1          12           1           1           1
 AtmWgt=  12.0000000  12.0000000  12.0000000   1.0078250   1.0078250   1.0078250  12.0000000   1.0078250   1.0078250   1.0078250
 NucSpn=           0           0           0           1           1           1           0           1           1           1
 AtZEff=  -0.0000000  -0.0000000  -0.0000000  -0.0000000  -0.0000000  -0.0000000  -0.0000000  -0.0000000  -0.0000000  -0.0000000
 NQMom=    0.0000000   0.0000000   0.0000000   0.0000000   0.0000000   0.0000000   0.0000000   0.0000000   0.0000000   0.0000000
 NMagM=    0.0000000   0.0000000   0.0000000   2.7928460   2.7928460   2.7928460   0.0000000   2.7928460   2.7928460   2.7928460
 AtZNuc=   6.0000000   6.0000000   6.0000000   1.0000000   1.0000000   1.0000000   6.0000000   1.0000000   1.0000000   1.0000000

  Atom        71          72          73          74          75          76
 IAtWgt=          12           1           1          12           1           1
 AtmWgt=  12.0000000   1.0078250   1.0078250  12.0000000   1.0078250   1.0078250
 NucSpn=           0           1           1           0           1           1
 AtZEff=  -0.0000000  -0.0000000  -0.0000000  -0.0000000  -0.0000000  -0.0000000
 NQMom=    0.0000000   0.0000000   0.0000000   0.0000000   0.0000000   0.0000000
 NMagM=    0.0000000   2.7928460   2.7928460   0.0000000   2.7928460   2.7928460
 AtZNuc=   6.0000000   1.0000000   1.0000000   6.0000000   1.0000000   1.0000000
 Leave Link  101 at Wed Mar  6 04:40:03 2024, MaxMem=   104857600 cpu:               0.2 elap:              13.4
 (Enter /mlatom/software/Gaussian/g16-avx2/l103.exe)

 GradGradGradGradGradGradGradGradGradGradGradGradGradGradGradGradGradGrad
 Berny optimization.
 Initialization pass.
 Trust Radius=3.00D-01 FncErr=1.00D-07 GrdErr=1.00D-07 EigMax=2.50D+02 EigMin=1.00D-04
 Number of steps in this run=      2 maximum allowed number of steps=      2.
 GradGradGradGradGradGradGradGradGradGradGradGradGradGradGradGradGradGrad

 Leave Link  103 at Wed Mar  6 04:40:17 2024, MaxMem=   104857600 cpu:               0.1 elap:               9.4
 (Enter /mlatom/software/Gaussian/g16-avx2/l202.exe)
 Stoichiometry    C66H10
 Framework group  C1[X(C66H10)]
 Deg. of freedom   222
 Full point group                 C1      NOp   1
 Largest Abelian subgroup         C1      NOp   1
 Largest concise Abelian subgroup C1      NOp   1
                         Standard orientation:                         
 ---------------------------------------------------------------------
 Center     Atomic      Atomic             Coordinates (Angstroms)
 Number     Number       Type             X           Y           Z
 ---------------------------------------------------------------------
      1          6           0        1.940138   -2.307557   -2.399248
      2          6           0        0.515251   -2.310091   -2.679403
      3          6           0       -0.092452   -1.176705   -3.229083
      4          6           0        0.706609    0.000042   -3.526986
      5          6           0        2.077222    0.000035   -3.263534
      6          6           0        2.706506   -1.176444   -2.685875
      7          6           0        2.155946   -3.034424   -1.158360
      8          6           0        0.862751   -3.483235   -0.671719
      9          6           0       -0.148606   -3.029959   -1.613791
     10          6           0       -1.385774   -2.582095   -1.142649
     11          6           0       -1.385399   -0.732665   -2.748539
     12          6           0       -0.092444    1.176785   -3.229055
     13          6           0        0.515263    2.310156   -2.679348
     14          6           0        1.940151    2.307608   -2.399193
     15          6           0        2.706512    1.176498   -2.685847
     16          6           0        3.718764    0.727321   -1.747185
     17          6           0        3.718760   -0.727296   -1.747202
     18          6           0        3.925739   -1.424850   -0.555774
     19          6           0        3.128379   -2.601457   -0.255432
     20          6           0        0.593301   -3.483501    0.696785
     21          6           0        1.605365   -3.034938    1.637694
     22          6           0        2.847450   -2.601581    1.171093
     23          6           0        3.471460   -1.424949    1.751506
     24          6           0        4.138405   -0.697864    0.684633
     25          6           0        4.138408    0.697830    0.684650
     26          6           0        3.925746    1.424847   -0.555740
     27          6           0        3.128393    2.601450   -0.255370
     28          6           0        2.155963    3.034444   -1.158287
     29          6           0       -1.385391    0.732743   -2.748521
     30          6           0       -0.699610    3.030131    1.185050
     31          6           0       -1.666069    2.582067    0.280024
     32          6           0       -2.474412    1.420611    0.575687
     33          6           0       -2.275454    0.733913    1.764821
     34          6           0       -1.260694    1.176809    2.699105
     35          6           0        0.934653    2.307764    2.703876
     36          6           0        1.605382    3.034895    1.637767
     37          6           0        0.593319    3.483487    0.696869
     38          6           0        0.862769    3.483251   -0.671636
     39          6           0       -0.148590    3.030002   -1.613719
     40          6           0       -1.385764    2.582135   -1.142589
     41          6           0       -2.474410   -1.420596    0.575639
     42          6           0       -2.275457   -0.733935    1.764800
     43          6           0       -1.260700   -1.176861    2.699075
     44          6           0       -0.634379   -0.000035    3.277676
     45          6           0        0.733556   -0.000042    3.554865
     46          6           0        1.535046    1.176592    3.259803
     47          6           0        2.847464    2.601542    1.171155
     48          6           0        3.471468    1.424892    1.751540
     49          6           0        2.827648    0.727283    2.775360
     50          6           0        2.827645   -0.727360    2.775343
     51          6           0        1.535040   -1.176673    3.259776
     52          6           0        0.934641   -2.307828    2.703820
     53          6           0       -0.489962   -2.311148    2.422759
     54          6           0       -0.699624   -3.030147    1.184975
     55          6           0       -1.666075   -2.582056    0.279959
     56          6           0       -2.020454    1.419156   -1.722396
     57          6           0       -2.020464   -1.419095   -1.722421
     58          6           0       -0.489950    2.311100    2.422816
     59          6           0       -2.821711    0.728645   -0.686776
     60          6           0       -2.821682   -0.728601   -0.686785
     61          6           0       -5.659463   -0.710941   -0.214490
     62          6           0       -5.659440    0.710923   -0.214498
     63          6           0       -6.267086   -1.466609    0.945912
     64          1           0       -6.184663   -2.547092    0.800929
     65          1           0       -5.778832   -1.217426    1.897403
     66          1           0       -7.331161   -1.226432    1.063015
     67          6           0       -6.267125    1.466629    0.945846
     68          1           0       -7.331350    1.226882    1.062520
     69          1           0       -5.779327    1.217063    1.897465
     70          1           0       -6.184207    2.547104    0.801088
     71          6           0       -4.894699    1.396648   -1.152251
     72          1           0       -4.725885    0.994980   -2.143601
     73          1           0       -4.818437    2.479043   -1.091816
     74          6           0       -4.894739   -1.396698   -1.152246
     75          1           0       -4.818461   -2.479090   -1.091782
     76          1           0       -4.725880   -0.995033   -2.143588
 ---------------------------------------------------------------------
 Rotational constants (GHZ):           0.0806904           0.0552993           0.0548530
 Leave Link  202 at Wed Mar  6 04:40:35 2024, MaxMem=   104857600 cpu:               0.1 elap:              13.1
 (Enter /mlatom/software/Gaussian/g16-avx2/l301.exe)
 Standard basis: STO-3G (5D, 7F)
 Ernie: Thresh=  0.10000D-02 Tol=  0.10000D-05 Strict=F.
 There are   340 symmetry adapted cartesian basis functions of A   symmetry.
 There are   340 symmetry adapted basis functions of A   symmetry.
   340 basis functions,  1020 primitive gaussians,   340 cartesian basis functions
   203 alpha electrons      203 beta electrons
       nuclear repulsion energy      9888.5675213085 Hartrees.
 IExCor=    0 DFT=F Ex=HF Corr=None ExCW=0 ScaHFX=  1.000000
 ScaDFX=  1.000000  1.000000  1.000000  1.000000 ScalE2=  1.000000  1.000000
 IRadAn=      5 IRanWt=     -1 IRanGd=            0 ICorTp=0 IEmpDi=  4
 NAtoms=   76 NActive=   76 NUniq=   76 SFac= 1.00D+00 NAtFMM=   60 NAOKFM=T Big=T
 Integral buffers will be    131072 words long.
 Raffenetti 1 integral format.
 Two-electron integral symmetry is turned on.
 Leave Link  301 at Wed Mar  6 04:40:54 2024, MaxMem=   104857600 cpu:               0.2 elap:              14.8
 (Enter /mlatom/software/Gaussian/g16-avx2/l402.exe)
 External calculation of energy, first and second derivatives.
 Running external command "/mlatom/software/miniconda3/bin/python /mlatom/software/mlatom/mlatom/interfaces/gaussian_interface.py model_predict_kwargs R"
         input file       "/mlatom/home/qhzhang/git/ts-analysis/calculations/C60/ts_b3lyp_d4/mlatom_d4/Gau-369341.EIn"
         output file      "/mlatom/home/qhzhang/git/ts-analysis/calculations/C60/ts_b3lyp_d4/mlatom_d4/Gau-369341.EOu"
         message file     "/mlatom/home/qhzhang/git/ts-analysis/calculations/C60/ts_b3lyp_d4/mlatom_d4/Gau-369341.EMs"
         fchk file        "/mlatom/home/qhzhang/git/ts-analysis/calculations/C60/ts_b3lyp_d4/mlatom_d4/Gau-369341.EFC"
         mat. el file     "/mlatom/home/qhzhang/git/ts-analysis/calculations/C60/ts_b3lyp_d4/mlatom_d4/Gau-369341.EUF"
 Recovered energy= -2521.15429804     dipole=     -4.445500000000      0.000000000000     -0.122000000000
 Energy=    -2521.15430     NIter=   0.
 Dipole moment=      -4.445500       0.000000      -0.122000
 Leave Link  402 at Wed Mar  6 19:06:13 2024, MaxMem=   104857600 cpu:               0.1 elap:           51917.2
 (Enter /mlatom/software/Gaussian/g16-avx2/l601.exe)
 Leave Link  601 at Wed Mar  6 19:06:15 2024, MaxMem=   104857600 cpu:               0.1 elap:               0.7
 (Enter /mlatom/software/Gaussian/g16-avx2/l716.exe)
 Dipole        =-4.44550000D+00 0.00000000D+00-1.22000000D-01
 Full mass-weighted force constant matrix:
 Low frequencies --- -441.1801   -0.1015    0.0697    0.1446   20.2818   20.3310
 Low frequencies ---   23.9361   50.6824   52.2798
 ******    1 imaginary frequencies (negative Signs) ****** 
 Diagonal vibrational polarizability:
        0.0000000       0.0000000       0.0000000
 Harmonic frequencies (cm**-1), IR intensities (KM/Mole), Raman scattering
 activities (A**4/AMU), depolarization ratios for plane and unpolarized
 incident light, reduced masses (AMU), force constants (mDyne/A),
 and normal coordinates:
                      1                      2                      3
                      A                      A                      A
 Frequencies --   -441.1801                50.6653                52.2695
 Red. masses --      8.5840                 3.6634                 4.2092
 Frc consts  --      0.9844                 0.0055                 0.0068
 IR Inten    --      0.0000                 0.0000                 0.0000
  Atom  AN      X      Y      Z        X      Y      Z        X      Y      Z
     1   6    -0.00  -0.00   0.00     0.02   0.01  -0.01     0.02   0.00   0.00
     2   6    -0.00  -0.01   0.00     0.02  -0.00  -0.01     0.02   0.00  -0.02
     3   6    -0.01  -0.00   0.01     0.01  -0.00  -0.00     0.03   0.00  -0.03
     4   6    -0.01  -0.00   0.01    -0.00   0.00   0.00     0.03   0.00  -0.01
     5   6    -0.01  -0.00   0.00    -0.00   0.01  -0.00     0.03   0.00   0.00
     6   6    -0.00  -0.00   0.00     0.01   0.02  -0.00     0.02   0.00   0.01
     7   6    -0.00  -0.00   0.00     0.03   0.01  -0.01     0.00   0.00   0.00
     8   6    -0.00   0.00   0.00     0.03  -0.00  -0.01    -0.00   0.00  -0.01
     9   6     0.00   0.00  -0.00     0.02  -0.01  -0.01     0.01  -0.00  -0.03
    10   6     0.00   0.02  -0.00     0.02  -0.02  -0.01     0.00  -0.00  -0.04
    11   6    -0.01  -0.01   0.01     0.00  -0.02  -0.00     0.02   0.00  -0.04
    12   6    -0.01   0.00   0.01    -0.01  -0.00   0.00     0.03  -0.00  -0.03
    13   6    -0.00   0.01   0.00    -0.02  -0.00   0.01     0.02  -0.00  -0.02
    14   6    -0.00   0.00  -0.00    -0.02   0.01   0.01     0.02  -0.00   0.00
    15   6    -0.00   0.00   0.00    -0.01   0.02   0.00     0.02  -0.00   0.01
    16   6    -0.00   0.00  -0.00    -0.01   0.02   0.00     0.01   0.00   0.02
    17   6    -0.00  -0.00  -0.00     0.01   0.02  -0.00     0.01   0.00   0.02
    18   6    -0.00  -0.00  -0.00     0.01   0.02  -0.01    -0.00   0.00   0.03
    19   6    -0.00  -0.00  -0.00     0.02   0.01  -0.01    -0.01   0.00   0.02
    20   6    -0.00   0.00  -0.00     0.03  -0.01  -0.01    -0.02  -0.00  -0.02
    21   6    -0.00  -0.00  -0.00     0.03  -0.01  -0.01    -0.03  -0.00  -0.00
    22   6    -0.00  -0.00   0.00     0.02   0.01  -0.01    -0.02  -0.00   0.01
    23   6    -0.00  -0.00  -0.00     0.01   0.01  -0.01    -0.03   0.00   0.02
    24   6    -0.00  -0.00  -0.00     0.01   0.02  -0.00    -0.02   0.00   0.03
    25   6    -0.00   0.00  -0.00    -0.01   0.02   0.00    -0.02   0.00   0.03
    26   6    -0.00   0.00  -0.00    -0.01   0.02   0.00    -0.00  -0.00   0.03
    27   6     0.00   0.00  -0.00    -0.02   0.01   0.01    -0.01  -0.00   0.02
    28   6    -0.00   0.00   0.00    -0.03   0.01   0.01     0.00  -0.00   0.00
    29   6    -0.01   0.01   0.01    -0.00  -0.02   0.00     0.02  -0.00  -0.04
    30   6    -0.00  -0.00   0.00    -0.03  -0.03   0.01    -0.02   0.00  -0.03
    31   6     0.00  -0.02  -0.00    -0.02  -0.03   0.01    -0.01   0.00  -0.04
    32   6    -0.03   0.01  -0.01    -0.02  -0.04   0.01    -0.01  -0.00  -0.05
    33   6    -0.00   0.01  -0.02    -0.01  -0.04   0.00    -0.03   0.00  -0.05
    34   6    -0.01  -0.00  -0.02    -0.01  -0.04   0.00    -0.04   0.00  -0.04
    35   6    -0.00   0.00  -0.00    -0.02  -0.02   0.01    -0.04   0.00  -0.01
    36   6    -0.00   0.00  -0.00    -0.03  -0.01   0.01    -0.03   0.00  -0.00
    37   6    -0.00   0.00  -0.00    -0.03  -0.01   0.01    -0.02   0.00  -0.02
    38   6    -0.00   0.00   0.00    -0.03  -0.00   0.01    -0.00  -0.00  -0.01
    39   6     0.00  -0.00  -0.00    -0.02  -0.01   0.01     0.01   0.00  -0.03
    40   6     0.00  -0.02  -0.00    -0.02  -0.02   0.01     0.00   0.00  -0.04
    41   6    -0.02  -0.01  -0.01     0.02  -0.04  -0.00    -0.01   0.00  -0.05
    42   6    -0.00  -0.01  -0.02     0.01  -0.04   0.00    -0.03  -0.00  -0.05
    43   6    -0.01   0.00  -0.02     0.01  -0.04  -0.00    -0.04  -0.00  -0.04
    44   6    -0.00  -0.00  -0.02     0.00  -0.03   0.00    -0.05  -0.00  -0.03
    45   6    -0.01  -0.00  -0.00     0.00  -0.02   0.00    -0.05  -0.00  -0.01
    46   6    -0.00   0.00  -0.00    -0.01  -0.01   0.00    -0.05   0.00  -0.00
    47   6    -0.00  -0.00   0.00    -0.02   0.01   0.01    -0.02   0.00   0.01
    48   6    -0.00   0.00  -0.00    -0.01   0.01   0.00    -0.03   0.00   0.02
    49   6    -0.00   0.00   0.00    -0.01  -0.00   0.00    -0.05  -0.00   0.01
    50   6    -0.00  -0.00   0.00     0.01  -0.00  -0.00    -0.05  -0.00   0.01
    51   6    -0.00  -0.00  -0.00     0.01  -0.01  -0.00    -0.05  -0.00  -0.00
    52   6    -0.00  -0.00  -0.00     0.02  -0.02  -0.01    -0.04  -0.00  -0.01
    53   6    -0.00  -0.00  -0.00     0.02  -0.03  -0.01    -0.04  -0.00  -0.03
    54   6    -0.00   0.00   0.00     0.03  -0.03  -0.01    -0.02  -0.00  -0.03
    55   6     0.00   0.02  -0.00     0.02  -0.03  -0.01    -0.01  -0.00  -0.04
    56   6    -0.02   0.01  -0.00    -0.01  -0.03   0.01     0.01   0.00  -0.05
    57   6    -0.02  -0.01  -0.00     0.00  -0.03  -0.01     0.01  -0.00  -0.05
    58   6    -0.00   0.00  -0.00    -0.02  -0.03   0.01    -0.04   0.00  -0.03
    59   6    -0.34   0.10  -0.07    -0.01  -0.03  -0.00     0.00  -0.00  -0.06
    60   6    -0.34  -0.10  -0.07     0.01  -0.03   0.00     0.00   0.00  -0.06
    61   6     0.04   0.08   0.04    -0.03   0.07   0.06     0.06   0.00   0.12
    62   6     0.04  -0.08   0.04     0.03   0.07  -0.06     0.06   0.00   0.12
    63   6    -0.01  -0.00  -0.03    -0.07   0.20   0.14     0.20   0.00   0.19
    64   1    -0.02   0.00  -0.07    -0.07   0.19   0.26     0.16   0.00   0.17
    65   1    -0.02  -0.05  -0.00    -0.09   0.31   0.12     0.33  -0.02   0.13
    66   1    -0.01   0.00  -0.02    -0.07   0.23   0.08     0.22   0.02   0.34
    67   6    -0.01   0.00  -0.03     0.06   0.20  -0.14     0.20   0.00   0.19
    68   1    -0.01  -0.00  -0.02     0.06   0.23  -0.08     0.22  -0.02   0.34
    69   1    -0.02   0.05  -0.01     0.09   0.31  -0.12     0.33   0.02   0.13
    70   1    -0.02  -0.00  -0.07     0.07   0.19  -0.26     0.16   0.00   0.17
    71   6     0.42  -0.12   0.09     0.08  -0.05  -0.11    -0.02  -0.00   0.05
    72   1    -0.14   0.05  -0.08     0.06  -0.15  -0.08    -0.09  -0.00   0.04
    73   1     0.31  -0.10   0.09     0.11  -0.05  -0.22    -0.01  -0.00   0.04
    74   6     0.42   0.12   0.09    -0.08  -0.05   0.11    -0.02  -0.00   0.05
    75   1     0.31   0.10   0.09    -0.11  -0.05   0.22    -0.01   0.00   0.05
    76   1    -0.15  -0.05  -0.08    -0.06  -0.15   0.08    -0.10   0.00   0.04
                      4                      5                      6
                      A                      A                      A
 Frequencies --     74.6208               106.3174               109.8609
 Red. masses --      3.3135                 1.4107                 2.3149
 Frc consts  --      0.0109                 0.0094                 0.0165
 IR Inten    --      0.0000                 0.0000                 0.0000
  Atom  AN      X      Y      Z        X      Y      Z        X      Y      Z
     1   6     0.01  -0.00   0.00    -0.01   0.00  -0.00     0.02  -0.01   0.00
     2   6     0.01  -0.01   0.00    -0.01   0.01  -0.00     0.02  -0.02   0.01
     3   6     0.00  -0.01   0.00    -0.00   0.01  -0.00     0.01  -0.02   0.00
     4   6     0.00  -0.01  -0.00    -0.00   0.01   0.00    -0.00  -0.02   0.00
     5   6     0.00  -0.00   0.00    -0.00   0.00   0.00    -0.00  -0.01   0.00
     6   6     0.01   0.00   0.00    -0.01  -0.00  -0.00     0.01  -0.00   0.00
     7   6     0.01   0.00   0.01    -0.01   0.00  -0.00     0.02  -0.00   0.00
     8   6     0.01  -0.00   0.01    -0.01   0.00  -0.00     0.02  -0.01   0.01
     9   6     0.01  -0.01   0.01    -0.01   0.01  -0.00     0.02  -0.02   0.01
    10   6     0.01  -0.02   0.01    -0.01   0.01  -0.00     0.01  -0.02   0.00
    11   6     0.00  -0.02  -0.00    -0.00   0.02  -0.00     0.00  -0.03   0.00
    12   6    -0.00  -0.01  -0.00     0.00   0.01   0.00    -0.01  -0.02  -0.00
    13   6    -0.01  -0.01  -0.00     0.01   0.01   0.00    -0.02  -0.02  -0.01
    14   6    -0.01  -0.00  -0.00     0.01   0.00   0.00    -0.02  -0.01  -0.00
    15   6    -0.01   0.00  -0.00     0.01  -0.00   0.00    -0.01  -0.00  -0.00
    16   6    -0.00   0.01  -0.00     0.00  -0.01   0.00    -0.01   0.01  -0.00
    17   6     0.00   0.01   0.00    -0.00  -0.01  -0.00     0.01   0.01   0.00
    18   6     0.01   0.01   0.00    -0.01  -0.01  -0.00     0.01   0.01   0.00
    19   6     0.01   0.01   0.01    -0.01  -0.00  -0.00     0.02   0.00   0.00
    20   6     0.01  -0.00   0.01    -0.01   0.01  -0.00     0.02  -0.01   0.00
    21   6     0.01   0.01   0.01    -0.01   0.00  -0.00     0.02  -0.00   0.00
    22   6     0.01   0.01   0.01    -0.01  -0.00  -0.00     0.02   0.00   0.00
    23   6     0.01   0.01   0.00    -0.01  -0.01  -0.00     0.01   0.01   0.00
    24   6     0.00   0.01   0.00    -0.00  -0.01  -0.00     0.01   0.01   0.00
    25   6    -0.00   0.01  -0.00     0.00  -0.01   0.00    -0.01   0.01  -0.00
    26   6    -0.01   0.01  -0.00     0.01  -0.01   0.00    -0.01   0.01  -0.00
    27   6    -0.01   0.01  -0.01     0.01  -0.00   0.00    -0.02   0.00  -0.00
    28   6    -0.01   0.00  -0.01     0.01   0.00   0.00    -0.02  -0.00  -0.00
    29   6    -0.00  -0.02   0.00     0.00   0.02   0.00    -0.00  -0.03  -0.00
    30   6    -0.01  -0.01  -0.01     0.01   0.01   0.00    -0.02  -0.02  -0.00
    31   6    -0.01  -0.01  -0.00     0.01   0.01   0.00    -0.01  -0.02  -0.00
    32   6     0.00  -0.01   0.00    -0.00   0.02   0.00     0.00  -0.03  -0.00
    33   6     0.00  -0.01  -0.00     0.00   0.02  -0.00    -0.01  -0.03   0.00
    34   6    -0.00  -0.01  -0.00     0.01   0.01   0.00    -0.01  -0.02   0.00
    35   6    -0.01   0.01  -0.00     0.01   0.00   0.00    -0.02  -0.01  -0.00
    36   6    -0.01   0.01  -0.01     0.01   0.00   0.00    -0.02  -0.00  -0.00
    37   6    -0.01   0.00  -0.01     0.01   0.01   0.00    -0.02  -0.01  -0.00
    38   6    -0.01  -0.00  -0.01     0.01   0.00   0.00    -0.02  -0.01  -0.01
    39   6    -0.01  -0.01  -0.01     0.01   0.01   0.00    -0.02  -0.02  -0.01
    40   6    -0.01  -0.02  -0.01     0.01   0.01   0.00    -0.01  -0.02  -0.00
    41   6    -0.00  -0.01  -0.00     0.00   0.02  -0.00    -0.00  -0.03   0.00
    42   6    -0.00  -0.01   0.00    -0.00   0.02   0.00     0.01  -0.03  -0.00
    43   6     0.00  -0.01   0.00    -0.01   0.01  -0.00     0.01  -0.02  -0.00
    44   6    -0.00  -0.00  -0.00     0.00   0.01  -0.00     0.00  -0.02   0.00
    45   6    -0.00   0.01   0.00     0.00   0.00   0.00     0.00  -0.01  -0.00
    46   6    -0.00   0.01  -0.00     0.01   0.00   0.00    -0.01  -0.00  -0.00
    47   6    -0.01   0.01  -0.01     0.01  -0.00   0.00    -0.02   0.01  -0.00
    48   6    -0.01   0.01  -0.00     0.01  -0.01   0.00    -0.01   0.01  -0.00
    49   6    -0.00   0.01  -0.00     0.00  -0.00   0.00    -0.01   0.01  -0.00
    50   6     0.00   0.01   0.00    -0.00  -0.00  -0.00     0.01   0.01   0.00
    51   6     0.00   0.01   0.00    -0.01   0.00  -0.00     0.01  -0.00   0.00
    52   6     0.01   0.01   0.00    -0.01   0.00  -0.00     0.02  -0.01   0.00
    53   6     0.01  -0.00   0.00    -0.01   0.01  -0.00     0.02  -0.02   0.00
    54   6     0.01  -0.01   0.00    -0.01   0.01  -0.00     0.02  -0.02   0.00
    55   6     0.01  -0.01   0.00    -0.01   0.01  -0.00     0.01  -0.02   0.00
    56   6    -0.00  -0.02  -0.00     0.00   0.02  -0.00    -0.00  -0.03   0.00
    57   6     0.00  -0.02   0.00    -0.00   0.02   0.00     0.00  -0.03  -0.00
    58   6    -0.01  -0.00  -0.00     0.01   0.01   0.00    -0.02  -0.02  -0.00
    59   6    -0.02  -0.01  -0.00    -0.02   0.02  -0.00     0.03  -0.03   0.01
    60   6     0.02  -0.01   0.00     0.02   0.02   0.00    -0.03  -0.03  -0.01
    61   6    -0.07   0.03  -0.05    -0.01  -0.05   0.01     0.03   0.10  -0.02
    62   6     0.07   0.03   0.05     0.01  -0.05  -0.01    -0.03   0.10   0.02
    63   6    -0.22   0.00  -0.14    -0.05  -0.03   0.01     0.03   0.04  -0.06
    64   1    -0.33   0.01  -0.22     0.27  -0.03   0.19     0.35   0.05   0.06
    65   1    -0.24  -0.13  -0.09    -0.33   0.24   0.08    -0.22   0.26   0.01
    66   1    -0.20   0.11  -0.18    -0.14  -0.30  -0.27    -0.06  -0.24  -0.28
    67   6     0.22   0.00   0.14     0.05  -0.03  -0.01    -0.03   0.04   0.06
    68   1     0.20   0.11   0.18     0.14  -0.30   0.27     0.06  -0.24   0.28
    69   1     0.24  -0.13   0.09     0.33   0.24  -0.08     0.22   0.26  -0.01
    70   1     0.33   0.01   0.22    -0.27  -0.03  -0.19    -0.35   0.05  -0.06
    71   6     0.13   0.02   0.08     0.03  -0.07  -0.02    -0.08   0.14   0.02
    72   1     0.01   0.08   0.03     0.01  -0.08  -0.01    -0.03   0.17   0.02
    73   1     0.20   0.01   0.14     0.01  -0.07  -0.04    -0.05   0.14   0.07
    74   6    -0.13   0.02  -0.08    -0.03  -0.07   0.02     0.08   0.14  -0.02
    75   1    -0.20   0.01  -0.14    -0.01  -0.07   0.04     0.05   0.14  -0.07
    76   1    -0.01   0.08  -0.03    -0.01  -0.08   0.01     0.03   0.17  -0.02
                      7                      8                      9
                      A                      A                      A
 Frequencies --    116.0820               167.6634               194.2500
 Red. masses --      3.3085                 1.1587                 3.4404
 Frc consts  --      0.0263                 0.0192                 0.0765
 IR Inten    --      0.0000                 0.0000                 0.0000
  Atom  AN      X      Y      Z        X      Y      Z        X      Y      Z
     1   6    -0.03  -0.00   0.00    -0.01  -0.00  -0.00     0.00  -0.00   0.00
     2   6    -0.03  -0.00   0.01    -0.01  -0.00  -0.00     0.00  -0.01  -0.00
     3   6    -0.04  -0.00   0.01    -0.01  -0.00  -0.00    -0.00  -0.01  -0.00
     4   6    -0.04  -0.00   0.01    -0.01  -0.00  -0.00     0.00  -0.01   0.00
     5   6    -0.04  -0.00  -0.00    -0.01  -0.00  -0.00     0.00  -0.00   0.00
     6   6    -0.04  -0.00  -0.01    -0.01  -0.00  -0.00     0.00  -0.00  -0.00
     7   6    -0.02  -0.00   0.00    -0.01  -0.00  -0.00     0.00   0.00   0.00
     8   6    -0.02  -0.00   0.01    -0.01  -0.00   0.00     0.00  -0.00   0.00
     9   6    -0.02  -0.00   0.02    -0.01  -0.00   0.00     0.00  -0.01   0.00
    10   6    -0.02  -0.00   0.03    -0.00  -0.00   0.00    -0.00  -0.01  -0.00
    11   6    -0.03   0.00   0.02    -0.00   0.00  -0.00    -0.00  -0.01  -0.01
    12   6    -0.04   0.00   0.01    -0.01   0.00  -0.00     0.00  -0.01   0.00
    13   6    -0.03   0.00   0.01    -0.01   0.00  -0.00    -0.00  -0.01   0.00
    14   6    -0.03   0.00   0.00    -0.01   0.00  -0.00    -0.00  -0.00  -0.00
    15   6    -0.04   0.00  -0.01    -0.01   0.00  -0.00    -0.00  -0.00   0.00
    16   6    -0.03  -0.00  -0.01    -0.01  -0.00  -0.00    -0.00   0.00  -0.00
    17   6    -0.03   0.00  -0.01    -0.01   0.00  -0.00     0.00   0.00   0.00
    18   6    -0.02   0.00  -0.01    -0.01   0.00  -0.00     0.00   0.00   0.00
    19   6    -0.02  -0.00  -0.01    -0.01  -0.00  -0.00     0.00   0.00   0.00
    20   6    -0.01  -0.00   0.01    -0.00  -0.00   0.00     0.00   0.00   0.00
    21   6    -0.00  -0.00   0.01    -0.00  -0.00   0.00     0.00   0.01   0.00
    22   6    -0.01   0.00  -0.01    -0.01  -0.00  -0.00     0.00   0.01   0.00
    23   6    -0.00   0.00  -0.01    -0.01   0.00  -0.00     0.00   0.01   0.00
    24   6    -0.01   0.00  -0.02    -0.01   0.00  -0.00    -0.00   0.01   0.00
    25   6    -0.01  -0.00  -0.02    -0.01  -0.00  -0.00     0.00   0.01  -0.00
    26   6    -0.02  -0.00  -0.01    -0.01  -0.00  -0.00    -0.00   0.00  -0.00
    27   6    -0.02   0.00  -0.01    -0.01   0.00  -0.00    -0.00   0.00  -0.00
    28   6    -0.02   0.00   0.00    -0.01   0.00  -0.00    -0.00   0.00  -0.00
    29   6    -0.03  -0.00   0.02    -0.00  -0.00  -0.00     0.00  -0.01   0.01
    30   6    -0.01   0.00   0.03    -0.00   0.00   0.00     0.00  -0.00   0.00
    31   6    -0.01   0.00   0.03    -0.00   0.00   0.00     0.00  -0.01   0.00
    32   6    -0.01   0.00   0.04     0.00  -0.00   0.00     0.01  -0.01   0.01
    33   6     0.00  -0.00   0.03    -0.00   0.00   0.01     0.00  -0.01   0.00
    34   6     0.01  -0.00   0.03    -0.00   0.00   0.01     0.00  -0.00   0.00
    35   6     0.01   0.00   0.01    -0.00   0.00   0.00     0.00   0.01   0.00
    36   6    -0.00   0.00   0.01    -0.00   0.00   0.00    -0.00   0.01  -0.00
    37   6    -0.01   0.00   0.01    -0.00   0.00   0.00    -0.00   0.00  -0.00
    38   6    -0.02   0.00   0.01    -0.01   0.00   0.00    -0.00  -0.00  -0.00
    39   6    -0.02   0.00   0.02    -0.01   0.00   0.00    -0.00  -0.01  -0.00
    40   6    -0.02   0.00   0.03    -0.00   0.00   0.00     0.00  -0.01   0.00
    41   6    -0.01  -0.00   0.04     0.00   0.00   0.00    -0.01  -0.01  -0.01
    42   6     0.00   0.00   0.03    -0.00  -0.00   0.01    -0.00  -0.01  -0.00
    43   6     0.01   0.00   0.03    -0.00  -0.00   0.01    -0.00  -0.00  -0.00
    44   6     0.01  -0.00   0.03    -0.00  -0.00   0.01     0.00  -0.00  -0.00
    45   6     0.01  -0.00   0.01    -0.00  -0.00   0.00    -0.00   0.00   0.00
    46   6     0.01   0.00   0.01    -0.00   0.00   0.00    -0.00   0.00  -0.00
    47   6    -0.01  -0.00  -0.01    -0.01   0.00  -0.00    -0.00   0.01  -0.00
    48   6    -0.00  -0.00  -0.01    -0.01  -0.00  -0.00    -0.00   0.01  -0.00
    49   6     0.01  -0.00  -0.00    -0.00  -0.00  -0.00    -0.00   0.01   0.00
    50   6     0.01   0.00  -0.00    -0.00   0.00  -0.00    -0.00   0.01  -0.00
    51   6     0.01  -0.00   0.01    -0.00  -0.00   0.00     0.00   0.01   0.00
    52   6     0.01  -0.00   0.01    -0.00  -0.00   0.00    -0.00   0.01  -0.00
    53   6     0.01   0.00   0.02    -0.00  -0.00   0.00     0.00   0.00  -0.00
    54   6    -0.01  -0.00   0.03    -0.00  -0.00   0.00    -0.00  -0.00  -0.00
    55   6    -0.01  -0.00   0.03    -0.00  -0.00   0.00    -0.00  -0.01  -0.00
    56   6    -0.01  -0.00   0.04     0.00  -0.00   0.00     0.00  -0.01   0.00
    57   6    -0.01   0.00   0.04     0.00   0.00   0.00    -0.00  -0.01  -0.00
    58   6     0.01  -0.00   0.02    -0.00   0.00   0.00     0.00   0.00   0.00
    59   6     0.00  -0.00   0.03     0.02  -0.00   0.01    -0.04   0.00   0.00
    60   6     0.00   0.00   0.03     0.02   0.00   0.01     0.04   0.00  -0.00
    61   6     0.06  -0.00  -0.13     0.05  -0.00  -0.00    -0.04   0.02  -0.03
    62   6     0.06   0.00  -0.13     0.05   0.00  -0.00     0.04   0.02   0.03
    63   6     0.19  -0.00  -0.06     0.05  -0.00  -0.00     0.14   0.00   0.05
    64   1     0.04  -0.00  -0.14     0.40   0.00   0.18     0.30   0.00   0.12
    65   1     0.43  -0.12  -0.15    -0.23   0.29   0.06     0.19   0.15  -0.01
    66   1     0.25   0.12   0.18    -0.05  -0.30  -0.27     0.11  -0.16   0.13
    67   6     0.19   0.00  -0.06     0.05   0.00  -0.00    -0.14   0.00  -0.05
    68   1     0.25  -0.12   0.18    -0.05   0.30  -0.27    -0.11  -0.16  -0.13
    69   1     0.43   0.12  -0.15    -0.23  -0.29   0.06    -0.19   0.15   0.01
    70   1     0.04   0.00  -0.14     0.40  -0.00   0.18    -0.30   0.00  -0.12
    71   6     0.04   0.00  -0.13     0.02   0.00  -0.02     0.24   0.01   0.16
    72   1     0.07  -0.01  -0.12     0.02   0.00  -0.02     0.16   0.10   0.11
    73   1     0.05  -0.00  -0.13     0.03   0.00  -0.02     0.27   0.00   0.23
    74   6     0.04   0.00  -0.13     0.02  -0.00  -0.02    -0.24   0.01  -0.16
    75   1     0.05   0.00  -0.13     0.03  -0.00  -0.02    -0.27   0.00  -0.23
    76   1     0.07   0.01  -0.12     0.02  -0.00  -0.02    -0.16   0.10  -0.11
                     10                     11                     12
                      A                      A                      A
 Frequencies --    240.4374               261.9954               262.9439
 Red. masses --      5.8303                11.9612                11.9729
 Frc consts  --      0.1986                 0.4837                 0.4877
 IR Inten    --      0.0000                 0.0000                 0.0000
  Atom  AN      X      Y      Z        X      Y      Z        X      Y      Z
     1   6    -0.01  -0.03  -0.04    -0.04   0.14   0.14     0.02   0.06  -0.07
     2   6     0.00  -0.03  -0.05    -0.01   0.14   0.15     0.01   0.07  -0.08
     3   6     0.02  -0.02  -0.06     0.01   0.12   0.10    -0.01   0.01  -0.15
     4   6     0.01  -0.00  -0.08     0.00   0.10   0.00     0.02   0.00  -0.19
     5   6     0.00  -0.00  -0.07    -0.00   0.10   0.00     0.05   0.00  -0.17
     6   6    -0.02  -0.01  -0.05    -0.04   0.11   0.07     0.06   0.02  -0.12
     7   6    -0.02  -0.03  -0.03    -0.05   0.09   0.10    -0.01   0.15  -0.02
     8   6    -0.01  -0.04  -0.01    -0.02   0.06   0.11    -0.00   0.21   0.00
     9   6     0.01  -0.04  -0.03     0.00   0.10   0.12     0.02   0.16  -0.01
    10   6     0.04  -0.02  -0.00     0.00   0.05   0.09     0.03   0.13   0.00
    11   6     0.05   0.00  -0.02     0.01   0.09   0.06    -0.02   0.01  -0.11
    12   6     0.02   0.02  -0.06    -0.01   0.12  -0.10    -0.01  -0.01  -0.15
    13   6     0.00   0.03  -0.05     0.01   0.14  -0.15     0.01  -0.06  -0.08
    14   6    -0.01   0.03  -0.04     0.04   0.14  -0.13     0.02  -0.06  -0.07
    15   6    -0.02   0.01  -0.05     0.04   0.11  -0.07     0.06  -0.02  -0.12
    16   6    -0.06  -0.00  -0.02     0.03   0.07  -0.04     0.05  -0.01  -0.08
    17   6    -0.06   0.00  -0.02    -0.03   0.07   0.04     0.05   0.01  -0.08
    18   6    -0.08   0.01  -0.02    -0.04   0.04   0.04     0.02   0.05  -0.03
    19   6    -0.05  -0.01  -0.01    -0.03   0.04   0.07    -0.02   0.11  -0.01
    20   6    -0.02  -0.04   0.00    -0.02  -0.06   0.11     0.00   0.21  -0.00
    21   6    -0.04  -0.03   0.01     0.00  -0.09   0.11    -0.02   0.15   0.02
    22   6    -0.06  -0.01  -0.01    -0.00  -0.04   0.08    -0.02   0.11   0.00
    23   6    -0.09   0.01  -0.02     0.02  -0.04   0.05     0.01   0.05   0.03
    24   6    -0.11   0.01  -0.02    -0.01   0.00   0.03     0.03   0.01   0.01
    25   6    -0.11  -0.01  -0.02     0.01   0.00  -0.03     0.03  -0.01   0.01
    26   6    -0.08  -0.01  -0.02     0.04   0.04  -0.04     0.02  -0.05  -0.03
    27   6    -0.05   0.01  -0.01     0.03   0.04  -0.07    -0.02  -0.11  -0.01
    28   6    -0.02   0.03  -0.03     0.05   0.10  -0.10    -0.01  -0.15  -0.02
    29   6     0.05  -0.00  -0.02    -0.01   0.09  -0.06    -0.02  -0.00  -0.11
    30   6    -0.01   0.04   0.03     0.05  -0.11  -0.11     0.02  -0.16   0.02
    31   6     0.03   0.02   0.01     0.04  -0.05  -0.09     0.03  -0.13   0.01
    32   6     0.10  -0.01   0.02     0.06  -0.06  -0.05    -0.02  -0.06   0.03
    33   6     0.03   0.00   0.03     0.04  -0.09  -0.05    -0.06  -0.01   0.09
    34   6    -0.01   0.02   0.06     0.05  -0.12  -0.09    -0.06  -0.02   0.13
    35   6    -0.03   0.03   0.03     0.01  -0.14  -0.14    -0.01  -0.06   0.08
    36   6    -0.04   0.03   0.01    -0.00  -0.09  -0.11    -0.02  -0.15   0.01
    37   6    -0.02   0.04   0.00     0.02  -0.06  -0.11     0.00  -0.21  -0.00
    38   6    -0.01   0.04  -0.01     0.02   0.06  -0.11    -0.00  -0.21   0.00
    39   6     0.01   0.04  -0.03    -0.00   0.10  -0.12     0.02  -0.16  -0.01
    40   6     0.04   0.02  -0.00    -0.00   0.05  -0.09     0.03  -0.13   0.00
    41   6     0.10   0.01   0.02    -0.06  -0.06   0.05    -0.02   0.06   0.03
    42   6     0.03  -0.00   0.03    -0.04  -0.09   0.05    -0.06   0.01   0.09
    43   6    -0.01  -0.02   0.06    -0.05  -0.12   0.09    -0.06   0.01   0.13
    44   6    -0.04  -0.00   0.07     0.00  -0.10  -0.00    -0.05  -0.00   0.18
    45   6    -0.04   0.00   0.05    -0.00  -0.10  -0.00    -0.02  -0.00   0.18
    46   6    -0.05   0.01   0.03    -0.01  -0.11  -0.08     0.01  -0.02   0.14
    47   6    -0.06   0.01  -0.01     0.00  -0.04  -0.08    -0.02  -0.11  -0.00
    48   6    -0.09  -0.01  -0.02    -0.02  -0.04  -0.05     0.01  -0.05   0.03
    49   6    -0.07  -0.00  -0.01    -0.01  -0.07  -0.05     0.02  -0.01   0.09
    50   6    -0.07   0.00  -0.01     0.01  -0.07   0.05     0.02   0.01   0.09
    51   6    -0.05  -0.01   0.03     0.01  -0.11   0.08     0.01   0.02   0.14
    52   6    -0.03  -0.03   0.03    -0.01  -0.14   0.14    -0.01   0.06   0.08
    53   6    -0.03  -0.04   0.04    -0.05  -0.14   0.14    -0.02   0.06   0.08
    54   6    -0.01  -0.04   0.03    -0.05  -0.11   0.11     0.02   0.16   0.02
    55   6     0.03  -0.02   0.01    -0.04  -0.05   0.09     0.03   0.13   0.01
    56   6     0.10  -0.01   0.02    -0.03   0.06  -0.07    -0.00  -0.06  -0.04
    57   6     0.10   0.01   0.02     0.03   0.06   0.07    -0.00   0.06  -0.04
    58   6    -0.03   0.04   0.04     0.05  -0.14  -0.14    -0.02  -0.07   0.08
    59   6     0.19  -0.02   0.04     0.00  -0.00  -0.04    -0.03  -0.02  -0.01
    60   6     0.19   0.02   0.04    -0.00  -0.00   0.04    -0.03   0.02  -0.01
    61   6     0.14  -0.01   0.06    -0.00   0.00  -0.00    -0.01   0.00  -0.01
    62   6     0.14   0.01   0.06     0.00   0.00   0.00    -0.01  -0.00  -0.01
    63   6    -0.05  -0.00  -0.04     0.01  -0.00   0.00     0.00   0.00   0.00
    64   1    -0.27  -0.00  -0.15     0.02  -0.00   0.01     0.02   0.00   0.01
    65   1    -0.05  -0.20   0.01     0.01   0.01  -0.00     0.00   0.02  -0.00
    66   1    -0.00   0.20  -0.07     0.00  -0.02   0.01    -0.00  -0.01   0.00
    67   6    -0.05   0.00  -0.04    -0.01  -0.00  -0.00     0.00  -0.00   0.00
    68   1    -0.00  -0.20  -0.07    -0.00  -0.02  -0.01    -0.00   0.01   0.00
    69   1    -0.05   0.20   0.01    -0.01   0.01   0.00     0.00  -0.02  -0.00
    70   1    -0.27   0.00  -0.15    -0.02  -0.00  -0.01     0.02  -0.00   0.01
    71   6     0.14   0.02   0.09     0.02  -0.00   0.01    -0.00  -0.00  -0.00
    72   1     0.23   0.01   0.11    -0.01   0.01   0.00    -0.02   0.00  -0.01
    73   1     0.14   0.02   0.10     0.02  -0.00   0.01    -0.00  -0.00   0.00
    74   6     0.14  -0.02   0.09    -0.02  -0.00  -0.01    -0.00   0.00  -0.00
    75   1     0.14  -0.02   0.10    -0.02  -0.00  -0.01    -0.00   0.00   0.00
    76   1     0.23  -0.01   0.11     0.01   0.01  -0.00    -0.02  -0.00  -0.01
                     13                     14                     15
                      A                      A                      A
 Frequencies --    267.6494               268.5023               302.2825
 Red. masses --     11.9341                11.8996                 2.6073
 Frc consts  --      0.5037                 0.5054                 0.1404
 IR Inten    --      0.0000                 0.0000                 0.0000
  Atom  AN      X      Y      Z        X      Y      Z        X      Y      Z
     1   6    -0.08   0.05   0.00     0.09  -0.01  -0.02     0.00  -0.00  -0.00
     2   6    -0.07  -0.05  -0.04     0.07   0.02   0.06     0.00  -0.00  -0.00
     3   6    -0.04  -0.05  -0.04     0.09   0.03   0.13     0.00  -0.00   0.00
     4   6     0.00  -0.03   0.00     0.10   0.00   0.09     0.00  -0.00  -0.00
     5   6     0.00   0.03  -0.00     0.12  -0.00  -0.04     0.00   0.00  -0.01
     6   6    -0.05   0.05   0.02     0.14  -0.02  -0.07     0.00  -0.00  -0.00
     7   6    -0.12   0.08   0.00     0.06  -0.03  -0.03     0.00  -0.01  -0.00
     8   6    -0.10  -0.01  -0.02     0.03   0.01   0.01     0.00  -0.00  -0.00
     9   6    -0.10  -0.09  -0.05     0.04   0.04   0.06     0.00  -0.00  -0.00
    10   6    -0.14  -0.14  -0.04     0.03   0.02   0.08     0.00   0.00   0.00
    11   6    -0.04  -0.08  -0.02     0.11   0.02   0.16     0.00  -0.00   0.00
    12   6     0.04  -0.05   0.04     0.09  -0.03   0.13     0.00   0.00   0.00
    13   6     0.07  -0.05   0.04     0.07  -0.02   0.07     0.00   0.00  -0.00
    14   6     0.08   0.05  -0.00     0.09   0.01  -0.02     0.00   0.00  -0.00
    15   6     0.05   0.05  -0.02     0.14   0.02  -0.07     0.00   0.00  -0.00
    16   6     0.05   0.08  -0.01     0.18   0.02  -0.11    -0.00   0.00  -0.00
    17   6    -0.05   0.08   0.00     0.18  -0.02  -0.11    -0.00  -0.00  -0.00
    18   6    -0.11   0.11   0.00     0.11  -0.03  -0.09    -0.01   0.00  -0.00
    19   6    -0.15   0.15  -0.01     0.07  -0.02  -0.07    -0.00  -0.00  -0.00
    20   6    -0.10  -0.00  -0.02    -0.03   0.00  -0.00     0.00  -0.00   0.00
    21   6    -0.11   0.08  -0.05    -0.04   0.03  -0.05     0.00  -0.00   0.00
    22   6    -0.14   0.15  -0.05    -0.03   0.02  -0.08    -0.00  -0.00   0.00
    23   6    -0.10   0.12  -0.05    -0.06   0.03  -0.13    -0.01  -0.00  -0.00
    24   6    -0.06   0.11  -0.01     0.03  -0.00  -0.10    -0.01   0.00  -0.00
    25   6     0.06   0.11   0.01     0.03   0.00  -0.10    -0.01  -0.00  -0.00
    26   6     0.11   0.11  -0.00     0.11   0.03  -0.09    -0.01  -0.00  -0.00
    27   6     0.15   0.15   0.01     0.06   0.02  -0.07    -0.00   0.00  -0.00
    28   6     0.12   0.08  -0.00     0.06   0.03  -0.03     0.00   0.01  -0.00
    29   6     0.04  -0.08   0.02     0.11  -0.02   0.16     0.00   0.00   0.00
    30   6     0.11  -0.09  -0.01    -0.06   0.03   0.04     0.00   0.00   0.00
    31   6     0.14  -0.14   0.01    -0.06   0.02   0.07     0.00  -0.00  -0.00
    32   6     0.10  -0.11  -0.01    -0.10   0.03   0.09     0.00  -0.00  -0.00
    33   6     0.04  -0.08  -0.00    -0.17   0.02   0.11     0.01  -0.00  -0.00
    34   6     0.05  -0.04  -0.02    -0.13   0.03   0.08     0.00  -0.00  -0.00
    35   6     0.07   0.05   0.04    -0.07  -0.01  -0.06     0.00   0.00   0.00
    36   6     0.11   0.08   0.05    -0.04  -0.03  -0.05     0.00   0.00   0.00
    37   6     0.10  -0.00   0.02    -0.03  -0.00  -0.00     0.00   0.00   0.00
    38   6     0.10  -0.01   0.02     0.03  -0.01   0.01     0.00   0.00  -0.00
    39   6     0.10  -0.09   0.05     0.04  -0.04   0.06     0.00   0.00  -0.00
    40   6     0.14  -0.14   0.04     0.03  -0.02   0.08     0.00  -0.00   0.00
    41   6    -0.10  -0.11   0.01    -0.10  -0.03   0.09     0.00   0.00  -0.00
    42   6    -0.04  -0.08   0.00    -0.17  -0.02   0.11     0.01   0.00  -0.00
    43   6    -0.05  -0.04   0.02    -0.13  -0.03   0.08     0.00   0.00  -0.00
    44   6    -0.00  -0.03   0.00    -0.12   0.00   0.04     0.00  -0.00   0.00
    45   6    -0.00   0.03  -0.00    -0.10   0.00  -0.08     0.00  -0.00   0.01
    46   6     0.04   0.05   0.04    -0.09  -0.03  -0.12     0.00   0.00   0.01
    47   6     0.14   0.15   0.05    -0.03  -0.02  -0.08    -0.00   0.00   0.00
    48   6     0.10   0.12   0.05    -0.06  -0.03  -0.13    -0.01   0.00  -0.00
    49   6     0.04   0.08   0.02    -0.12  -0.02  -0.17    -0.00   0.00   0.00
    50   6    -0.04   0.08  -0.02    -0.12   0.02  -0.17    -0.00  -0.00   0.00
    51   6    -0.04   0.05  -0.04    -0.09   0.03  -0.12     0.00  -0.00   0.01
    52   6    -0.07   0.05  -0.04    -0.07   0.01  -0.06     0.00  -0.00   0.00
    53   6    -0.08  -0.04   0.00    -0.09  -0.02   0.03     0.00  -0.00   0.00
    54   6    -0.12  -0.09   0.01    -0.06  -0.03   0.04     0.00  -0.00   0.00
    55   6    -0.14  -0.14  -0.01    -0.06  -0.02   0.07     0.00   0.00  -0.00
    56   6     0.09  -0.11   0.05     0.05  -0.03   0.12     0.00  -0.00   0.00
    57   6    -0.09  -0.11  -0.04     0.05   0.03   0.12     0.00   0.00   0.00
    58   6     0.08  -0.04  -0.00    -0.09   0.02   0.03     0.00   0.00   0.00
    59   6     0.07  -0.11   0.01    -0.02   0.00   0.09    -0.01   0.00  -0.00
    60   6    -0.07  -0.11  -0.01    -0.02  -0.00   0.09    -0.01  -0.00  -0.00
    61   6    -0.00  -0.01   0.00    -0.01   0.00  -0.01    -0.01   0.01  -0.08
    62   6     0.00  -0.01  -0.00    -0.01  -0.00  -0.01    -0.01  -0.01  -0.08
    63   6    -0.01  -0.00   0.00     0.01   0.00   0.01    -0.02   0.24   0.05
    64   1    -0.01  -0.00   0.00     0.04   0.00   0.02    -0.09   0.20   0.27
    65   1    -0.02  -0.00   0.01     0.02   0.03  -0.00     0.02   0.40  -0.01
    66   1    -0.01  -0.00  -0.01     0.01  -0.02   0.01     0.00   0.33   0.04
    67   6     0.01  -0.00  -0.00     0.01  -0.00   0.01    -0.02  -0.24   0.05
    68   1     0.01  -0.00   0.01     0.01   0.02   0.01     0.00  -0.33   0.04
    69   1     0.02  -0.00  -0.01     0.02  -0.03  -0.00     0.02  -0.40  -0.01
    70   1     0.01  -0.00  -0.00     0.04  -0.00   0.02    -0.09  -0.20   0.27
    71   6    -0.02  -0.01  -0.01    -0.00   0.00   0.00     0.02   0.07   0.00
    72   1     0.03  -0.03   0.00     0.02   0.00   0.00     0.02   0.14  -0.03
    73   1    -0.01  -0.01  -0.02     0.00  -0.00   0.01     0.04   0.06   0.10
    74   6     0.02  -0.01   0.01    -0.00  -0.00   0.00     0.02  -0.07   0.00
    75   1     0.01  -0.01   0.02     0.00   0.00   0.01     0.04  -0.06   0.10
    76   1    -0.03  -0.03  -0.00     0.02  -0.00   0.00     0.02  -0.14  -0.03
                     16                     17                     18
                      A                      A                      A
 Frequencies --    315.5902               344.4948               345.6794
 Red. masses --      8.0463                11.5259                11.5778
 Frc consts  --      0.4722                 0.8059                 0.8151
 IR Inten    --      0.0000                 0.0000                 0.0000
  Atom  AN      X      Y      Z        X      Y      Z        X      Y      Z
     1   6    -0.06   0.06   0.07    -0.01   0.05  -0.01     0.03  -0.10  -0.11
     2   6    -0.05   0.03   0.01    -0.02  -0.01   0.02     0.03  -0.10  -0.11
     3   6    -0.07  -0.00  -0.05     0.03   0.03   0.11     0.01  -0.05  -0.05
     4   6    -0.06  -0.00   0.00     0.05  -0.00   0.09    -0.00  -0.05  -0.00
     5   6    -0.08  -0.00   0.12     0.08  -0.00  -0.07    -0.00  -0.05   0.00
     6   6    -0.06   0.03   0.11     0.09  -0.02  -0.09     0.01  -0.05  -0.06
     7   6    -0.03   0.07   0.05    -0.07   0.13   0.01    -0.01  -0.07  -0.06
     8   6    -0.03   0.05   0.00    -0.06   0.03  -0.01     0.01  -0.10  -0.02
     9   6    -0.04   0.01  -0.01    -0.07  -0.09  -0.03     0.05  -0.05  -0.03
    10   6    -0.05  -0.01  -0.02    -0.12  -0.18  -0.03     0.15   0.10   0.05
    11   6    -0.08  -0.01  -0.08     0.05   0.01   0.14     0.03   0.02  -0.01
    12   6    -0.07   0.00  -0.05     0.03  -0.03   0.11    -0.02  -0.05   0.05
    13   6    -0.05  -0.03   0.01    -0.02   0.01   0.02    -0.03  -0.10   0.11
    14   6    -0.06  -0.06   0.07    -0.01  -0.05  -0.00    -0.03  -0.10   0.12
    15   6    -0.06  -0.03   0.11     0.08   0.01  -0.08    -0.02  -0.05   0.06
    16   6     0.02  -0.01   0.06     0.13   0.01  -0.11     0.03   0.03   0.02
    17   6     0.02   0.01   0.06     0.13  -0.01  -0.11    -0.03   0.03  -0.02
    18   6     0.12  -0.01   0.03     0.02   0.06  -0.03    -0.14   0.10   0.00
    19   6     0.04   0.03   0.02    -0.10   0.18  -0.01    -0.13   0.09  -0.02
    20   6    -0.02   0.05  -0.01    -0.06   0.03  -0.01     0.00  -0.09   0.02
    21   6    -0.01   0.07  -0.06    -0.06   0.13  -0.04    -0.04  -0.06   0.04
    22   6     0.04   0.03  -0.00    -0.10   0.18  -0.03    -0.13   0.10  -0.04
    23   6     0.12  -0.01   0.01     0.00   0.06   0.04    -0.14   0.10  -0.07
    24   6     0.21  -0.01   0.04     0.05   0.02   0.01    -0.11   0.11  -0.02
    25   6     0.21   0.01   0.04     0.05  -0.01   0.01     0.11   0.11   0.02
    26   6     0.12   0.01   0.03     0.02  -0.06  -0.03     0.14   0.10  -0.00
    27   6     0.04  -0.03   0.02    -0.10  -0.18  -0.01     0.14   0.10   0.02
    28   6    -0.03  -0.07   0.05    -0.07  -0.13   0.02     0.01  -0.06   0.06
    29   6    -0.08   0.01  -0.08     0.05  -0.01   0.14    -0.04   0.02   0.00
    30   6    -0.04  -0.01  -0.01    -0.08   0.09   0.00    -0.02  -0.06  -0.05
    31   6    -0.05   0.01  -0.00    -0.13   0.18  -0.02    -0.14   0.09  -0.02
    32   6    -0.00  -0.00   0.01    -0.01   0.07  -0.03    -0.14   0.09   0.01
    33   6    -0.10   0.01   0.04     0.10  -0.01  -0.11    -0.03   0.01  -0.02
    34   6    -0.08   0.00   0.02     0.07  -0.03  -0.09     0.01  -0.06  -0.06
    35   6    -0.03  -0.06  -0.09    -0.01  -0.05  -0.00     0.02  -0.09  -0.11
    36   6    -0.01  -0.07  -0.06    -0.06  -0.13  -0.04     0.04  -0.05  -0.04
    37   6    -0.02  -0.05  -0.01    -0.06  -0.03  -0.01    -0.00  -0.09  -0.02
    38   6    -0.03  -0.05   0.00    -0.06  -0.03  -0.01    -0.01  -0.10   0.02
    39   6    -0.04  -0.01  -0.01    -0.07   0.09  -0.03    -0.05  -0.06   0.04
    40   6    -0.05   0.01  -0.02    -0.12   0.18  -0.03    -0.14   0.09  -0.05
    41   6    -0.00   0.00   0.01    -0.01  -0.06  -0.03     0.14   0.09  -0.01
    42   6    -0.10  -0.01   0.04     0.10   0.01  -0.11     0.02   0.01   0.03
    43   6    -0.08  -0.00   0.02     0.07   0.02  -0.09    -0.01  -0.06   0.06
    44   6    -0.05  -0.00  -0.02     0.08  -0.00  -0.07    -0.00  -0.06   0.00
    45   6    -0.03  -0.00  -0.14     0.05  -0.00   0.09    -0.00  -0.05  -0.00
    46   6    -0.01  -0.03  -0.13     0.05   0.01   0.11     0.01  -0.04  -0.05
    47   6     0.04  -0.03  -0.00    -0.09  -0.18  -0.03     0.14   0.10   0.04
    48   6     0.12   0.01   0.01     0.01  -0.06   0.04     0.14   0.10   0.07
    49   6     0.04  -0.01  -0.05     0.08   0.01   0.15     0.03   0.03  -0.00
    50   6     0.04   0.01  -0.05     0.07  -0.01   0.15    -0.04   0.03  -0.01
    51   6    -0.01   0.03  -0.13     0.05  -0.02   0.11    -0.01  -0.04   0.05
    52   6    -0.03   0.06  -0.09    -0.02   0.05   0.00    -0.02  -0.10   0.11
    53   6    -0.05   0.02  -0.03    -0.01  -0.02  -0.02    -0.02  -0.11   0.12
    54   6    -0.04   0.01  -0.01    -0.08  -0.09   0.00     0.03  -0.06   0.05
    55   6    -0.05  -0.01  -0.00    -0.12  -0.18  -0.01     0.15   0.10   0.02
    56   6    -0.00  -0.00  -0.02    -0.03   0.07   0.03    -0.13   0.10  -0.07
    57   6    -0.00   0.00  -0.02    -0.02  -0.06   0.03     0.13   0.10   0.07
    58   6    -0.05  -0.02  -0.03    -0.01   0.01  -0.03     0.02  -0.11  -0.11
    59   6     0.13  -0.03   0.03     0.04   0.01   0.01    -0.14   0.11  -0.03
    60   6     0.13   0.03   0.03     0.04  -0.01   0.01     0.14   0.11   0.03
    61   6     0.18  -0.01   0.04     0.07  -0.00   0.02     0.01   0.02  -0.00
    62   6     0.18   0.01   0.04     0.07   0.00   0.02    -0.02   0.02   0.00
    63   6    -0.02   0.04  -0.03    -0.01   0.01  -0.01     0.01   0.01  -0.01
    64   1    -0.18   0.04  -0.07    -0.06   0.01  -0.03     0.01   0.01  -0.03
    65   1    -0.09  -0.07   0.03    -0.04  -0.03   0.02     0.01  -0.01  -0.01
    66   1     0.00   0.21  -0.15     0.00   0.07  -0.06     0.01   0.01  -0.01
    67   6    -0.02  -0.04  -0.03    -0.01  -0.01  -0.01    -0.01   0.01   0.01
    68   1     0.00  -0.21  -0.15     0.00  -0.07  -0.06    -0.01   0.01   0.01
    69   1    -0.09   0.07   0.03    -0.04   0.03   0.02    -0.01  -0.01   0.01
    70   1    -0.18  -0.04  -0.07    -0.06  -0.01  -0.03    -0.01   0.01   0.03
    71   6     0.10   0.05   0.05     0.03   0.02   0.01    -0.01   0.02  -0.00
    72   1     0.19   0.05   0.07     0.05   0.01   0.02    -0.11   0.05  -0.03
    73   1     0.09   0.05   0.08     0.02   0.02   0.02    -0.02   0.02  -0.00
    74   6     0.10  -0.06   0.05     0.03  -0.02   0.02     0.01   0.02   0.00
    75   1     0.09  -0.05   0.08     0.02  -0.02   0.02     0.02   0.02  -0.00
    76   1     0.19  -0.05   0.07     0.06  -0.01   0.02     0.11   0.05   0.03
                     19                     20                     21
                      A                      A                      A
 Frequencies --    346.6682               352.5171               356.6842
 Red. masses --     11.9833                11.9814                11.9676
 Frc consts  --      0.8485                 0.8772                 0.8971
 IR Inten    --      0.0000                 0.0000                 0.0000
  Atom  AN      X      Y      Z        X      Y      Z        X      Y      Z
     1   6    -0.03   0.15   0.08     0.07  -0.09  -0.07     0.04  -0.05  -0.14
     2   6    -0.00   0.15   0.08     0.04   0.07   0.06     0.00  -0.06  -0.16
     3   6    -0.03   0.03  -0.09     0.03   0.08   0.11    -0.04  -0.08  -0.15
     4   6     0.00   0.00  -0.17    -0.00   0.04   0.00    -0.00  -0.06   0.00
     5   6     0.05   0.00  -0.15    -0.00  -0.06   0.00    -0.00  -0.05   0.00
     6   6     0.05   0.04  -0.08     0.08  -0.10  -0.10     0.08  -0.07  -0.10
     7   6    -0.06   0.16   0.09     0.09  -0.11  -0.06    -0.01   0.12  -0.03
     8   6    -0.02   0.13   0.10     0.04   0.01  -0.00    -0.01   0.27   0.01
     9   6     0.02   0.17   0.10     0.05   0.11   0.07     0.01   0.10  -0.04
    10   6     0.00   0.06   0.05     0.05   0.07   0.09    -0.01   0.03  -0.01
    11   6    -0.07   0.00  -0.10     0.04   0.08   0.09    -0.05  -0.08  -0.07
    12   6    -0.03  -0.03  -0.10    -0.03   0.08  -0.11     0.04  -0.08   0.15
    13   6    -0.00  -0.15   0.08    -0.04   0.07  -0.06    -0.00  -0.06   0.16
    14   6    -0.03  -0.15   0.08    -0.07  -0.09   0.07    -0.04  -0.05   0.14
    15   6     0.05  -0.04  -0.08    -0.08  -0.10   0.10    -0.08  -0.07   0.10
    16   6     0.09  -0.01  -0.06    -0.08  -0.09   0.07    -0.06  -0.07   0.04
    17   6     0.09   0.01  -0.06     0.08  -0.09  -0.07     0.06  -0.07  -0.04
    18   6     0.02   0.02  -0.01     0.13  -0.08  -0.07     0.07  -0.03  -0.00
    19   6    -0.01   0.05   0.04     0.09  -0.07  -0.07     0.01   0.04  -0.00
    20   6    -0.02  -0.13   0.10    -0.04   0.02  -0.02    -0.00   0.27  -0.01
    21   6     0.02  -0.17   0.11    -0.06   0.12  -0.09    -0.01   0.11   0.03
    22   6    -0.00  -0.05   0.05    -0.05   0.07  -0.10     0.01   0.03   0.01
    23   6    -0.02  -0.03  -0.02    -0.08   0.06  -0.10     0.07  -0.03   0.04
    24   6     0.00  -0.00  -0.02     0.02  -0.01  -0.05     0.06  -0.02   0.01
    25   6    -0.00  -0.00  -0.02    -0.02  -0.01   0.05    -0.06  -0.02  -0.01
    26   6     0.02  -0.02  -0.01    -0.13  -0.08   0.07    -0.07  -0.03   0.00
    27   6    -0.01  -0.05   0.04    -0.09  -0.07   0.07    -0.00   0.04   0.00
    28   6    -0.06  -0.16   0.09    -0.09  -0.11   0.06     0.01   0.12   0.03
    29   6    -0.07  -0.00  -0.10    -0.04   0.08  -0.10     0.05  -0.08   0.07
    30   6    -0.06   0.17   0.09     0.08  -0.09  -0.05     0.00   0.11  -0.03
    31   6    -0.02   0.06   0.04     0.10  -0.08  -0.07     0.01   0.04  -0.00
    32   6     0.02   0.03  -0.02     0.13  -0.09  -0.08     0.06  -0.03  -0.01
    33   6     0.10   0.00  -0.07     0.08  -0.09  -0.07     0.06  -0.07  -0.04
    34   6     0.06   0.03  -0.08     0.08  -0.08  -0.09     0.09  -0.08  -0.12
    35   6    -0.00   0.15   0.09     0.04   0.09   0.09     0.01  -0.06  -0.15
    36   6     0.02   0.17   0.11     0.06   0.12   0.09     0.01   0.11  -0.03
    37   6    -0.02   0.13   0.10     0.04   0.02   0.02     0.00   0.27   0.01
    38   6    -0.02  -0.13   0.10    -0.04   0.01   0.00     0.01   0.27  -0.01
    39   6     0.02  -0.17   0.10    -0.05   0.11  -0.07    -0.01   0.10   0.04
    40   6     0.00  -0.06   0.05    -0.05   0.07  -0.09     0.01   0.03   0.01
    41   6     0.02  -0.03  -0.02    -0.13  -0.08   0.08    -0.06  -0.03   0.01
    42   6     0.10  -0.00  -0.07    -0.09  -0.09   0.08    -0.06  -0.07   0.05
    43   6     0.06  -0.03  -0.08    -0.08  -0.08   0.10    -0.09  -0.08   0.12
    44   6     0.06   0.00  -0.16    -0.00  -0.04   0.00    -0.00  -0.06   0.00
    45   6     0.02   0.00  -0.16    -0.00   0.06  -0.00    -0.00  -0.06   0.00
    46   6    -0.02   0.04  -0.09     0.03   0.09   0.12    -0.04  -0.08  -0.14
    47   6    -0.00   0.05   0.05     0.05   0.07   0.10    -0.01   0.03  -0.01
    48   6    -0.02   0.02  -0.02     0.08   0.06   0.10    -0.07  -0.03  -0.04
    49   6    -0.06   0.01  -0.09     0.04   0.08   0.09    -0.04  -0.07  -0.06
    50   6    -0.06  -0.01  -0.09    -0.04   0.08  -0.09     0.04  -0.07   0.06
    51   6    -0.02  -0.04  -0.09    -0.03   0.09  -0.12     0.04  -0.08   0.14
    52   6    -0.00  -0.15   0.08    -0.04   0.09  -0.09    -0.01  -0.06   0.15
    53   6    -0.03  -0.15   0.08    -0.07  -0.06   0.05    -0.05  -0.06   0.15
    54   6    -0.06  -0.17   0.09    -0.08  -0.09   0.05    -0.00   0.11   0.03
    55   6    -0.02  -0.06   0.04    -0.10  -0.08   0.07    -0.01   0.04   0.00
    56   6    -0.01  -0.03  -0.02    -0.08   0.07  -0.12     0.06  -0.03   0.04
    57   6    -0.01   0.03  -0.02     0.08   0.07   0.12    -0.06  -0.03  -0.04
    58   6    -0.03   0.15   0.08     0.07  -0.06  -0.05     0.05  -0.06  -0.15
    59   6     0.00   0.00  -0.02     0.02  -0.01  -0.05     0.04  -0.02   0.01
    60   6    -0.00  -0.00  -0.02    -0.02  -0.01   0.05    -0.04  -0.02  -0.01
    61   6     0.01   0.00   0.00    -0.00  -0.00  -0.00    -0.01  -0.01   0.00
    62   6     0.01  -0.00   0.00     0.00  -0.00   0.00     0.01  -0.01  -0.00
    63   6    -0.00   0.00  -0.00    -0.00   0.00   0.00    -0.00  -0.01   0.00
    64   1    -0.01   0.00  -0.00     0.01   0.00   0.02    -0.00  -0.01   0.00
    65   1    -0.00  -0.00   0.00     0.00   0.02  -0.00    -0.01  -0.00   0.01
    66   1    -0.00   0.02  -0.00    -0.00  -0.00   0.00    -0.01  -0.01   0.00
    67   6    -0.00  -0.00  -0.00     0.00   0.00  -0.00     0.00  -0.01  -0.00
    68   1    -0.00  -0.02  -0.00     0.00   0.00  -0.00     0.01  -0.01  -0.00
    69   1    -0.00   0.00   0.00    -0.00   0.02   0.00     0.01  -0.00  -0.01
    70   1    -0.01  -0.00  -0.00    -0.00   0.00  -0.02     0.00  -0.01  -0.00
    71   6    -0.00  -0.00  -0.01     0.00  -0.01   0.00    -0.00  -0.00  -0.00
    72   1    -0.01  -0.00  -0.01    -0.01  -0.01  -0.00     0.03  -0.01   0.01
    73   1    -0.01   0.00  -0.01     0.00  -0.01  -0.00    -0.01  -0.00  -0.01
    74   6    -0.00   0.00  -0.01    -0.00  -0.01  -0.00     0.00  -0.00   0.00
    75   1    -0.01  -0.00  -0.01    -0.00  -0.01   0.00     0.01  -0.00   0.01
    76   1    -0.01   0.00  -0.01     0.01  -0.01   0.00    -0.03  -0.01  -0.01
                     22                     23                     24
                      A                      A                      A
 Frequencies --    361.3622               396.5258               405.3740
 Red. masses --     11.9839                 6.5018                11.9308
 Frc consts  --      0.9220                 0.6023                 1.1551
 IR Inten    --      0.0000                 0.0000                 0.0000
  Atom  AN      X      Y      Z        X      Y      Z        X      Y      Z
     1   6    -0.02   0.03   0.06     0.01   0.01   0.03     0.20   0.01   0.06
     2   6    -0.02   0.03   0.06     0.00   0.06   0.12     0.20   0.01   0.04
     3   6    -0.07   0.01   0.07    -0.01   0.02   0.08     0.11  -0.06  -0.00
     4   6    -0.05   0.00   0.22    -0.02  -0.00   0.07    -0.00  -0.01  -0.00
     5   6    -0.06   0.00   0.24    -0.01  -0.00  -0.04    -0.00   0.01  -0.00
     6   6     0.02   0.01   0.10     0.01  -0.01  -0.06     0.11   0.05   0.04
     7   6     0.01  -0.03   0.01     0.03  -0.04   0.01     0.13  -0.01   0.07
     8   6    -0.00  -0.02   0.02     0.03   0.00   0.05     0.08   0.02   0.03
     9   6    -0.01  -0.03   0.00     0.02   0.05   0.09     0.15   0.04   0.01
    10   6    -0.04  -0.04  -0.07    -0.01   0.01   0.02     0.07  -0.02  -0.06
    11   6    -0.16  -0.02  -0.13    -0.05  -0.00  -0.01     0.05  -0.11  -0.05
    12   6    -0.07  -0.01   0.07    -0.01  -0.02   0.08    -0.11  -0.06   0.00
    13   6    -0.02  -0.03   0.06     0.00  -0.06   0.12    -0.20   0.01  -0.04
    14   6    -0.02  -0.03   0.06     0.01  -0.01   0.03    -0.20   0.01  -0.06
    15   6     0.02  -0.01   0.10     0.01   0.01  -0.06    -0.11   0.05  -0.04
    16   6     0.19   0.02  -0.05     0.01   0.01  -0.07    -0.06   0.10  -0.05
    17   6     0.19  -0.02  -0.05     0.01  -0.01  -0.07     0.06   0.10   0.05
    18   6     0.15  -0.07  -0.06    -0.05  -0.01  -0.05     0.04   0.05   0.06
    19   6     0.06  -0.04  -0.05     0.04  -0.06  -0.00     0.06   0.02   0.09
    20   6    -0.00   0.02   0.02     0.03   0.03   0.04    -0.09  -0.02  -0.00
    21   6    -0.01   0.02   0.01     0.04  -0.01   0.05    -0.14   0.01   0.01
    22   6    -0.04   0.04  -0.07     0.04  -0.04   0.03    -0.09  -0.01   0.06
    23   6    -0.12   0.06  -0.12    -0.03   0.01  -0.01    -0.06  -0.05   0.04
    24   6     0.01   0.00  -0.07    -0.14   0.01  -0.07    -0.01   0.01   0.05
    25   6     0.01  -0.00  -0.07    -0.14  -0.01  -0.07     0.01   0.01  -0.05
    26   6     0.15   0.07  -0.06    -0.05   0.01  -0.05    -0.04   0.05  -0.06
    27   6     0.06   0.04  -0.05     0.04   0.06  -0.00    -0.06   0.02  -0.09
    28   6     0.01   0.03   0.01     0.03   0.04   0.01    -0.13  -0.01  -0.07
    29   6    -0.16   0.02  -0.13    -0.05   0.00  -0.01    -0.05  -0.11   0.05
    30   6     0.01  -0.03   0.00     0.04  -0.09  -0.03     0.14  -0.04   0.05
    31   6     0.06  -0.04  -0.05    -0.02  -0.03  -0.00     0.05   0.02   0.09
    32   6     0.13  -0.06  -0.07    -0.07  -0.01  -0.04    -0.00   0.08   0.08
    33   6     0.20  -0.02  -0.06    -0.10  -0.00  -0.04     0.03   0.12   0.07
    34   6     0.04   0.01   0.09    -0.02  -0.04  -0.08     0.10   0.05   0.05
    35   6    -0.01   0.03   0.07     0.02  -0.04   0.01     0.20  -0.02   0.02
    36   6    -0.01  -0.02   0.01     0.04   0.01   0.05     0.14   0.01  -0.01
    37   6    -0.00  -0.02   0.02     0.03  -0.03   0.04     0.09  -0.02   0.01
    38   6    -0.00   0.02   0.02     0.03  -0.00   0.05    -0.08   0.02  -0.03
    39   6    -0.01   0.03   0.00     0.02  -0.05   0.09    -0.15   0.04  -0.01
    40   6    -0.04   0.04  -0.07    -0.01  -0.01   0.02    -0.07  -0.02   0.06
    41   6     0.14   0.06  -0.07    -0.07   0.00  -0.04     0.00   0.08  -0.08
    42   6     0.20   0.02  -0.06    -0.10   0.00  -0.04    -0.03   0.12  -0.07
    43   6     0.04  -0.01   0.08    -0.02   0.04  -0.08    -0.10   0.05  -0.05
    44   6    -0.03   0.00   0.22    -0.00   0.00  -0.09    -0.00   0.00  -0.00
    45   6    -0.04   0.00   0.24    -0.00  -0.00   0.01    -0.00  -0.02   0.00
    46   6    -0.06   0.02   0.09     0.03  -0.01   0.06     0.11  -0.06   0.01
    47   6    -0.04  -0.04  -0.07     0.04   0.04   0.03     0.09  -0.01  -0.06
    48   6    -0.12  -0.06  -0.12    -0.03  -0.01  -0.01     0.06  -0.05  -0.04
    49   6    -0.16  -0.02  -0.12     0.04   0.00   0.04     0.07  -0.10  -0.02
    50   6    -0.16   0.02  -0.12     0.04  -0.00   0.04    -0.07  -0.10   0.02
    51   6    -0.06  -0.02   0.09     0.03   0.01   0.06    -0.11  -0.06  -0.01
    52   6    -0.01  -0.03   0.07     0.02   0.04   0.01    -0.20  -0.02  -0.02
    53   6    -0.00  -0.03   0.06     0.04   0.09  -0.06    -0.20  -0.02  -0.05
    54   6     0.01   0.03   0.00     0.04   0.09  -0.03    -0.14  -0.04  -0.05
    55   6     0.06   0.04  -0.05    -0.02   0.03  -0.00    -0.05   0.02  -0.09
    56   6    -0.10   0.06  -0.11    -0.04   0.02  -0.03    -0.02  -0.07   0.08
    57   6    -0.10  -0.06  -0.11    -0.04  -0.02  -0.03     0.02  -0.07  -0.08
    58   6    -0.00   0.03   0.06     0.04  -0.09  -0.06     0.20  -0.02   0.05
    59   6     0.01   0.00  -0.06     0.00  -0.01  -0.05    -0.01   0.00   0.07
    60   6     0.01  -0.00  -0.06     0.00   0.01  -0.05     0.01   0.00  -0.07
    61   6     0.01   0.00  -0.00     0.24  -0.00   0.10     0.01  -0.01   0.00
    62   6     0.01  -0.00  -0.00     0.24   0.00   0.10    -0.01  -0.01   0.00
    63   6     0.00   0.00  -0.01    -0.02   0.04  -0.03    -0.01   0.01   0.00
    64   1    -0.01   0.00  -0.01    -0.21   0.03  -0.09    -0.02   0.00   0.02
    65   1    -0.00   0.00  -0.00    -0.18  -0.12   0.09    -0.01   0.01   0.00
    66   1     0.00   0.01  -0.01    -0.00   0.23  -0.24    -0.00   0.03  -0.01
    67   6     0.00  -0.00  -0.01    -0.02  -0.04  -0.03     0.01   0.01  -0.00
    68   1     0.00  -0.01  -0.01    -0.00  -0.23  -0.24     0.00   0.03   0.01
    69   1    -0.00  -0.00  -0.00    -0.18   0.12   0.09     0.01   0.01  -0.00
    70   1    -0.01  -0.00  -0.01    -0.21  -0.03  -0.09     0.02   0.00  -0.02
    71   6    -0.00   0.00  -0.01    -0.03   0.05  -0.05    -0.01  -0.00   0.00
    72   1    -0.01   0.01  -0.01    -0.02  -0.01  -0.02     0.02  -0.00   0.01
    73   1    -0.00   0.00  -0.00    -0.12   0.06  -0.12    -0.03   0.00   0.00
[...]
 .00013083,0.00042232,-0.00086448,-0.00050558,0.00032221,0.00071199,0.0
 0004781,-0.00105508,-0.00065795,-0.00151205,0.00026323,0.00073768,-0.0
 0508447,-0.00144125,0.00051190,-0.00043438,-0.00067121,-0.00003470,0.0
 0571839,-0.00789371,-0.00269047,0.00944570,0.00580397,-0.01484582,-0.1
 2460548,0.07384576,-0.22878965,0.00344081,0.02803895,0.01449994,-0.021
 16328,0.01037654,-0.02212114,0.00043171,0.00210219,0.00065946,-0.00079
 771,-0.00056613,-0.00137103,-0.00068569,-0.00109801,-0.00268389,-0.001
 72207,-0.00134510,0.00177715,0.00009102,-0.00011474,-0.00037022,0.0000
 7064,-0.00055450,0.00013268,0.00019522,-0.00042475,0.00052253,-0.01222
 069,-0.00357652,-0.00585008,0.00062335,-0.00360207,0.00020619,0.000584
 92,-0.00020455,-0.00144221,0.19003440,0.01928744,0.61652872,-0.0000708
 2,0.00003972,0.00000531,0.00007178,0.00013195,0.00015248,0.00023895,-0
 .00011348,0.00004586,-0.00009607,-0.00008358,-0.00002062,0.00006896,-0
 .00007355,-0.00002534,-0.00000424,0.00006287,0.00004362,-0.00000476,0.
 00000191,-0.00004393,-0.00000164,0.00000183,0.00000461,-0.00026904,0.0
 0010452,-0.00018484,0.00011160,0.00011384,-0.00025355,-0.00040129,-0.0
 0013909,-0.00040844,-0.00004918,-0.00000528,-0.00001063,-0.00004744,0.
 00006279,-0.00003525,0.00003157,-0.00000112,-0.00000409,0.00000040,0.0
 0001298,-0.00002006,0.00000483,-0.00000969,0.00000305,0.00000817,0.000
 01067,-0.00001904,-0.00001012,0.00002264,0.00001057,-0.00002270,-0.000
 00005,-0.00000958,-0.00001252,-0.00000773,-0.00001292,-0.00000418,0.00
 001118,0.00004027,-0.00001884,-0.00000654,0.00001041,-0.00000152,0.000
 02461,-0.00000421,-0.00001890,-0.00002019,0.00000763,-0.00002083,0.000
 03109,-0.00000696,0.00000236,0.00000071,-0.00001376,0.00001677,-0.0000
 0995,-0.00000617,-0.00001500,-0.00000481,-0.00000273,0.00009976,0.0000
 4951,-0.00001018,0.00002613,-0.00003341,-0.00012725,-0.00010501,-0.000
 12735,0.00011007,-0.00005117,-0.00008921,-0.00035736,0.00010090,0.0000
 6884,-0.00001699,-0.00004633,0.00000304,0.00002520,0.00002749,0.000002
 83,-0.00001394,-0.00000327,0.00000709,-0.00000088,0.00001682,0.0000090
 1,0.00000790,0.00000842,0.00002149,-0.00001218,0.00004843,-0.00004208,
 0.00008519,-0.00010537,-0.00009980,-0.00005583,0.00083457,-0.00037792,
 -0.00086356,-0.00014729,-0.00021868,0.00047562,0.00014374,-0.00011322,
 -0.00011069,-0.00004524,-0.00007303,0.00005405,0.00005217,-0.00007109,
 -0.00001561,-0.00001337,0.00001118,0.00004166,-0.00000208,-0.00002061,
 0.00001040,0.00000753,0.00000371,0.00001664,0.00000698,-0.00002148,-0.
 00000458,0.00001266,0.00000653,0.00002322,-0.00003104,0.00006135,-0.00
 003589,-0.00004099,0.00003569,0.00000723,0.00003488,0.00010415,-0.0001
 3098,-0.00013169,0.00007567,0.00020956,0.00016708,0.00012327,0.0001794
 2,0.00013097,-0.00007971,0.00031858,0.00079064,-0.00041978,0.00056756,
 -0.00001688,0.00006113,0.00006952,-0.00101036,-0.00057254,0.00028797,-
 0.00053584,-0.00656798,-0.00066720,0.00220287,0.01924941,0.00103845,0.
 00195932,0.00055216,-0.00668432,-0.00326092,0.00103254,0.00308756,0.00
 002183,-0.00049445,-0.00043917,0.00038902,0.00002839,0.00064581,-0.000
 14039,-0.00009168,-0.00064168,0.00027258,0.00114881,0.00048416,-0.0000
 5251,0.00000665,0.00000599,0.00003104,-0.00003450,0.00001032,-0.000268
 12,0.00026523,-0.00025694,-0.00122121,-0.00175731,0.00057101,-0.000639
 05,0.00019926,0.00016296,0.00080622,-0.00010431,-0.00011097,-0.0373579
 2,0.01822425,-0.00562217,0.03591884,-0.00002100,0.00002750,-0.00001071
 ,-0.00000614,0.00008376,0.00005824,0.00011284,-0.00003931,0.00005766,-
 0.00003079,-0.00003706,-0.00000093,0.00002022,-0.00001873,0.00000128,0
 .00000544,0.00001897,0.00001307,-0.00000571,-0.00001913,-0.00001551,0.
 00001068,0.00000277,0.00003597,-0.00011400,0.00000359,-0.00008288,-0.0
 0005776,0.00009160,-0.00000918,-0.00011569,-0.00006527,-0.00020010,0.0
 0003348,0.00003575,0.00000769,-0.00004238,-0.00001928,0.00000328,0.000
 03831,0.00001231,-0.00001285,-0.00001210,0.00001204,-0.00000980,0.0000
 0313,-0.00000448,-0.00000047,0.00000727,0.00000985,-0.00000210,-0.0000
 0742,-0.00000458,0.00000662,0.00000627,0.00001192,-0.00001300,-0.00001
 132,0.00000822,-0.00003839,-0.00000823,-0.00001006,0.00001608,0.000002
 77,0.00000788,0.00000746,0.00000651,0.00000136,-0.00000923,-0.00000543
 ,0.00000543,0.00000592,-0.00000822,0.00000915,-0.00000837,-0.00000099,
 0.00000668,-0.00000276,0.00000942,-0.00000591,-0.00000500,-0.00001604,
 -0.00001655,0.00000303,0.00001690,-0.00000183,-0.00008337,0.00001313,0
 .00000025,-0.00002297,-0.00007065,-0.00006426,0.00000226,-0.00011246,0
 .00019142,-0.00024287,0.00007769,-0.00002652,0.00009843,0.00002316,0.0
 0005535,-0.00002644,0.00005540,0.00002348,-0.00001530,-0.00000169,-0.0
 0000427,-0.00001449,0.00000230,0.00000109,-0.00000393,0.00000821,0.000
 01780,0.00000857,0.00000018,-0.00001888,-0.00000630,-0.00003215,-0.000
 02026,0.00002408,0.00017106,0.00014794,-0.00012739,-0.00006226,-0.0001
 6278,0.00025839,0.00006104,-0.00003578,-0.00005810,0.00000132,-0.00004
 429,0.00002265,0.00001321,-0.00003726,-0.00003399,-0.00002464,0.000013
 96,0.00004142,-0.00001019,-0.00002248,0.00001738,-0.00000062,0.0000105
 1,0.00000319,0.00000897,-0.00000922,0.00000672,0.00000185,-0.00000219,
 0.00001626,-0.00001148,0.00003727,-0.00002549,-0.00001443,0.00002041,0
 .00000924,0.00000167,0.00006449,-0.00005161,-0.00005629,0.00001494,0.0
 0009969,-0.00010584,0.00013383,0.00000527,0.00002264,0.00016803,0.0002
 2844,-0.00007160,0.00008517,0.00009587,-0.00004021,-0.00002840,0.00004
 160,0.00024043,-0.00041616,0.00001555,0.00022157,-0.00073822,-0.000262
 52,-0.00117496,-0.01244279,-0.00292665,0.00250113,0.00038998,0.0013644
 4,-0.00167770,0.00027003,-0.00098560,0.00023034,0.00104521,0.00046982,
 0.00008800,0.00032953,0.00006527,-0.00009765,0.00030741,-0.00019227,-0
 .00021258,-0.00055384,-0.00043422,0.00004763,0.00002243,0.00001983,-0.
 00000815,-0.00000197,0.00007746,0.00009916,-0.00007033,0.00026180,-0.0
 0009151,0.00004809,0.00020758,-0.00013942,0.00022363,0.00021456,0.0001
 1204,-0.00003684,0.00004539,0.02524107,-0.33949983,-0.01986125,-0.0259
 1377,0.35825349,-0.00001103,-0.00000479,0.00001228,-0.00000233,-0.0000
 0448,0.00000677,-0.00001774,0.00001528,-0.00002450,0.00001433,-0.00000
 082,-0.00001357,0.00000875,-0.00000186,0.00000286,-0.00000230,0.000008
 76,0.00001266,0.00001078,0.00001396,0.00000050,-0.00001598,0.00002989,
 -0.00001572,-0.00003325,0.00002814,-0.00003204,-0.00004912,-0.00002233
 ,0.00015607,0.00001830,0.00002402,0.00015049,0.00004962,0.00002093,0.0
 0001657,0.00000607,-0.00003371,0.00000409,0.00000955,0.00000284,0.0000
 0735,-0.00001642,-0.00000422,0.00000052,0.00000626,0.00000278,-0.00001
 386,-0.00000837,-0.00000953,-0.00000873,0.00001779,0.00000387,0.000002
 22,-0.00000080,-0.00000952,0.00000224,0.00001021,-0.00002299,-0.000004
 22,-0.00001862,0.00000247,-0.00000546,0.00001848,-0.00000047,-0.000007
 32,-0.00001871,-0.00001695,0.00000980,0.00000170,0.00001259,0.00000418
 ,0.00001394,-0.00001863,0.00000419,-0.00000196,-0.00000113,0.00000662,
 -0.00000616,0.00000679,-0.00000248,0.00001109,0.00000349,0.00001304,0.
 00000222,-0.00008040,0.00002862,-0.00000664,0.00000453,0.00005907,0.00
 004245,0.00005104,-0.00002050,-0.00005670,0.00000068,0.00013445,-0.000
 08172,-0.00000317,-0.00000951,0.00002274,-0.00001908,-0.00000012,-0.00
 001355,-0.00001272,0.00000002,-0.00000732,0.00000389,0.00000338,-0.000
 00463,-0.00000454,-0.00000987,-0.00001428,-0.00002566,0.00000199,-0.00
 001603,0.00003028,-0.00002999,0.00003094,0.00003905,0.00001578,-0.0003
 6701,0.00029100,0.00036319,0.00007714,0.00013393,-0.00020748,-0.000039
 28,0.00003845,0.00001423,0.00001389,0.00003812,-0.00003652,-0.00003104
 ,0.00004251,0.00002310,0.00000181,-0.00000045,-0.00002238,0.00000389,0
 .00002015,-0.00000706,-0.00000684,-0.00001251,-0.00000840,0.00000312,-
 0.00000119,-0.00000214,0.00000064,0.00001075,-0.00002294,0.00001209,-0
 .00004094,0.00003297,0.00004041,-0.00001557,-0.00001676,-0.00002020,-0
 .00003060,0.00006702,0.00009406,-0.00004783,-0.00012365,-0.00003551,-0
 .00010573,0.00011795,-0.00005984,0.00008134,-0.00016352,-0.00026850,0.
 00014594,-0.00042361,0.00001082,-0.00002780,-0.00003235,0.00083319,-0.
 00015799,-0.00014430,0.00132012,0.00285659,-0.00038635,-0.00038046,0.0
 2106320,0.00350351,-0.00449228,0.00156998,-0.00081503,0.00211795,0.001
 78657,-0.00049388,-0.00059392,-0.00039305,-0.00034096,-0.00024869,-0.0
 0000816,-0.00029651,0.00018909,-0.00022035,0.00032735,0.00022518,0.000
 97757,0.00041066,-0.00001599,-0.00006008,0.00005446,0.00002999,-0.0000
 2285,-0.00000671,-0.00005947,0.00018675,-0.00030397,-0.00037123,-0.000
 24369,-0.00144124,0.00030119,0.00001293,0.00072846,-0.00011612,-0.0000
 4790,0.00046428,-0.00827124,-0.02177279,-0.05501604,0.00906990,0.02093
 020,0.05214466,-0.00015321,-0.00000303,-0.00001070,0.00008129,-0.00044
 087,-0.00009091,-0.00043345,0.00018780,-0.00028115,0.00010131,-0.00001
 750,-0.00002665,-0.00003196,-0.00000036,0.00001171,0.00012369,-0.00000
 884,-0.00001682,0.00004934,0.00000027,-0.00002277,-0.00001417,0.000048
 34,-0.00005903,0.00034013,0.00002468,0.00040670,-0.00040802,0.00048303
 ,0.00044338,0.00014657,-0.00074235,-0.00027008,-0.00029349,-0.00007848
 ,-0.00006237,0.00011841,0.00028408,-0.00010954,-0.00015177,0.00003966,
 -0.00000788,0.00011267,-0.00002819,-0.00001903,-0.00010490,0.00008594,
 0.00004108,-0.00008892,-0.00010843,0.00004366,0.00003517,-0.00003566,-
 0.00004928,0.00003327,0.00002951,-0.00000107,0.00002309,-0.00005009,-0
 .00002575,-0.00008726,-0.00001641,-0.00000503,0.00005559,0.00003289,-0
 .00001200,-0.00004565,-0.00005174,0.00009837,0.00001723,-0.00004398,0.
 00000899,-0.00003150,0.00002169,0.00000078,0.00003074,0.00003914,-0.00
 005232,0.00000779,-0.00001495,0.00001523,0.00004268,-0.00000407,-0.000
 01156,0.00019901,0.00025115,-0.00007466,0.00007386,-0.00003600,-0.0001
 6097,0.00001907,0.00005129,-0.00001713,0.00051002,0.00010298,-0.000205
 87,-0.00008067,0.00122175,-0.00023566,-0.00038531,-0.00009292,0.000223
 68,-0.00012260,0.00001757,0.00003656,-0.00000112,0.00000241,0.00001331
 ,0.00002657,0.00006478,-0.00000486,-0.00003965,-0.00003758,-0.00004645
 ,0.00015919,0.00006630,0.00019326,-0.00003239,-0.00017216,0.00003327,-
 0.00020365,-0.00173225,-0.00218234,0.00055006,-0.00088568,0.00094633,-
 0.00016639,0.00008709,-0.00015315,0.00006498,-0.00005111,0.00005596,-0
 .00012319,0.00010469,-0.00001369,0.00010632,-0.00000816,-0.00002021,-0
 .00001396,-0.00000253,-0.00002812,0.00000225,0.00000406,0.00002560,-0.
 00011998,0.00004828,-0.00006345,-0.00008006,-0.00003527,-0.00012376,0.
 00007085,-0.00003443,0.00016699,0.00009786,-0.00011516,-0.00003607,-0.
 00004954,-0.00010755,0.00052377,0.00030123,-0.00023289,-0.00055019,-0.
 00034117,0.00088718,-0.00001069,0.00056271,-0.00009413,-0.00022578,0.0
 0063657,-0.00026841,0.00198700,0.00015602,0.00022054,0.00003967,-0.002
 55376,0.00460727,0.00152492,-0.01684153,-0.00365532,0.01113944,-0.0068
 0014,0.00019868,-0.02205130,-0.00437986,-0.00686059,-0.00063315,0.0042
 6323,0.00221430,-0.00450021,-0.00006870,0.00025951,0.00021427,-0.00096
 101,-0.00041859,-0.00155528,0.00005309,0.00042349,0.00042438,-0.000633
 85,-0.00006150,-0.00005640,0.00001824,0.00009716,-0.00007332,0.0000375
 3,-0.00002627,0.00013316,0.00000581,0.00005946,-0.00001367,0.00546167,
 0.00058433,0.00061475,0.00143139,-0.00017535,0.00006819,-0.00064356,0.
 00014223,0.00030360,-0.02528519,-0.01274903,-0.04214110,0.00162879,0.0
 0087706,0.00114156,0.04401636,0.00000611,-0.00002906,0.00001455,0.0000
 2072,-0.00004446,-0.00007183,-0.00005067,-0.00002239,0.00005328,0.0000
 1629,-0.00000407,-0.00001434,-0.00002101,-0.00000431,0.00000752,0.0000
 0133,0.00000409,-0.00002090,-0.00003705,0.00001653,0.00000059,0.000013
 59,-0.00002813,-0.00003258,0.00005516,0.00000802,0.00008208,-0.0000193
 4,-0.00009959,-0.00009051,0.00009390,-0.00010637,0.00012959,-0.0001245
 7,-0.00006679,-0.00002061,0.00003568,0.00006464,-0.00008018,-0.0000314
 8,0.00001174,0.00001323,0.00001726,-0.00000727,-0.00001949,-0.00001860
 ,0.00000873,0.00001852,-0.00001343,-0.00001460,0.00002034,-0.00001373,
 -0.00000354,-0.00000770,0.00001117,-0.00000561,-0.00000694,0.00000556,
 0.00000893,0.00002657,0.00001095,0.00000572,0.00001182,0.00001131,-0.0
 0000166,0.00000751,-0.00000088,-0.00000730,0.00002687,-0.00000905,-0.0
 0000931,-0.00001640,0.00000276,0.00000676,0.00000700,-0.00000572,-0.00
 000436,-0.00001065,-0.00001125,-0.00000155,-0.00000217,0.00000450,0.00
 002138,0.00000504,0.00008698,0.00029412,-0.00011050,-0.00000601,-0.000
 00562,-0.00002417,0.00001806,0.00001765,-0.00002323,0.00010494,0.00010
 195,-0.00016281,-0.00001514,0.00025273,-0.00000555,-0.00006496,-0.0000
 3429,0.00005272,-0.00006371,0.00000122,0.00001669,-0.00000628,0.000000
 50,0.00000985,0.00000407,-0.00001392,0.00001677,0.00000130,-0.00000927
 ,-0.00000669,0.00006007,0.00003618,0.00005443,0.00000284,-0.00012801,0
 .00004330,0.00001446,-0.00045468,-0.00047258,0.00003625,-0.00031654,0.
 00029832,-0.00000623,0.00002411,-0.00000914,-0.00002075,-0.00001824,0.
 00003546,0.00002127,0.00001353,0.00001123,0.00003030,-0.00002240,-0.00
 002004,0.00001495,0.00001639,-0.00001151,0.00000837,-0.00000378,0.0000
 1276,-0.00002914,0.00002045,-0.00000608,-0.00002965,-0.00000726,-0.000
 02047,0.00001366,0.00000460,0.00001554,-0.00003243,-0.00000944,0.00000
 536,-0.00001142,-0.00005267,0.00007552,0.00002275,0.00001105,-0.000045
 40,0.00000471,0.00029580,-0.00004263,0.00018316,0.00008691,0.00007930,
 0.00040730,-0.00013601,0.00040855,0.00006791,0.00006764,-0.00000239,-0
 .00123230,0.00096859,0.00055148,-0.00472447,-0.00084071,0.00253659,-0.
 00080968,0.01370898,0.01181979,-0.00185297,-0.00314832,-0.00205692,0.0
 0271810,-0.00159631,0.00005215,0.00011052,0.00052178,0.00009973,-0.000
 20518,0.00010903,-0.00017544,0.00020620,0.00067388,0.00059812,0.000228
 68,0.00012760,-0.00019552,0.00000636,0.00003390,0.00000794,-0.00003261
 ,-0.00000228,-0.00008373,-0.00001919,0.00004445,-0.00005267,0.00213268
 ,-0.00235550,0.00358759,0.00017364,-0.00360552,-0.00063496,-0.00021190
 ,0.00022775,-0.00000670,-0.00869674,-0.09850414,-0.10089155,-0.0041855
 7,-0.00774578,-0.02698481,0.01562722,0.10165376,0.00014168,-0.00002442
 ,0.00002390,-0.00003957,0.00026183,0.00010692,0.00019355,-0.00001173,0
 .00003747,0.00005498,0.00004825,0.00005925,-0.00002520,-0.00000127,0.0
 0003383,-0.00008243,-0.00000433,0.00004015,0.00002076,0.00004094,0.000
 05126,-0.00009066,-0.00001184,0.00006772,-0.00020505,0.00001171,-0.000
 26353,0.00010447,-0.00051090,-0.00047952,0.00021415,0.00099113,0.00043
 893,0.00023957,0.00009864,0.00001282,-0.00007558,-0.00022879,0.0000989
 0,0.00012386,-0.00001487,-0.00000288,-0.00006038,0.00004569,-0.0000001
 6,0.00006265,-0.00002351,-0.00003372,0.00007529,0.00004391,-0.00005492
 ,0.00000575,0.00003294,0.00006997,-0.00000777,-0.00005782,0.00001994,-
 0.00007853,0.00000778,-0.00003709,0.00005381,0.00000024,-0.00002691,-0
 .00000776,-0.00003093,-0.00001986,0.00003505,0.00000093,-0.00000264,0.
 00001195,0.00004725,-0.00004713,0.00003704,-0.00002349,-0.00001393,-0.
 00002245,-0.00000314,0.00003370,-0.00000413,0.00000831,-0.00001614,-0.
 00001595,0.00000717,0.00003809,0.00004091,-0.00062144,0.00012290,-0.00
 002944,0.00000634,0.00006046,0.00000253,-0.00001246,0.00004836,-0.0002
 6616,-0.00000876,-0.00005602,-0.00002466,-0.00040470,0.00018516,0.0001
 9035,0.00004358,-0.00008709,0.00009741,-0.00002984,-0.00003364,0.00000
 292,-0.00000077,-0.00000814,-0.00001551,-0.00003810,0.00000352,0.00001
 302,-0.00000852,0.00000411,-0.00011916,-0.00000891,-0.00011225,0.00005
 180,0.00011590,-0.00009007,0.00000764,0.00037373,0.00064794,-0.0001727
 8,0.00028114,-0.00024471,0.00001203,0.00001099,0.00015933,-0.00000899,
 0.00008684,-0.00004341,0.00000698,-0.00003684,0.00000610,-0.00004474,0
 .00006502,0.00000327,0.00001289,0.00003001,0.00000957,0.00000378,-0.00
 001226,-0.00000883,0.00006727,-0.00002216,0.00002555,0.00000695,0.0000
 5362,0.00000369,-0.00001695,-0.00001695,-0.00006103,-0.00002086,0.0000
 2728,-0.00001112,-0.00001552,-0.00004647,-0.00013641,0.00007254,0.0000
 5430,0.00004099,-0.00006931,-0.00017073,0.00028345,-0.00031525,-0.0000
 7441,-0.00016979,-0.00220999,0.00025371,0.00014177,-0.00010035,-0.0000
 8657,-0.00000981,0.00177701,-0.00172247,-0.00017307,0.00697848,0.00181
 842,-0.00385860,-0.00121135,-0.01284323,-0.01232475,0.00041228,0.00078
 028,0.00064587,-0.00284303,0.00265501,0.00067642,0.00022953,0.00008222
 ,0.00027155,-0.00004316,0.00004847,-0.00013492,-0.00019264,-0.00041225
 ,-0.00106159,0.00046185,0.00008863,-0.00003719,0.00008446,-0.00010001,
 0.00010977,-0.00006860,-0.00003619,0.00000770,-0.00000543,0.00006938,0
 .00002881,-0.00193928,-0.00152290,0.00022197,0.00006254,0.00064733,0.0
 0092400,0.00016386,-0.00022169,0.00072296,-0.05648755,-0.10238762,-0.2
 9743676,-0.00062927,0.00092838,0.00160205,0.05543180,0.11162604,0.3090
 0750\\-0.00048967,0.00112234,-0.00104287,0.00002759,0.00112496,-0.0011
 5934,0.00034825,0.00044946,-0.00151531,0.00011451,-0.00000067,-0.00161
 510,-0.00074124,0.00000020,-0.00143505,-0.00095074,0.00042801,-0.00122
 680,-0.00056336,0.00138298,-0.00060359,-0.00009483,0.00155889,-0.00041
 144,0.00020416,0.00140980,-0.00078066,0.00068081,0.00125342,-0.0004857
 3,0.00045871,0.00031375,-0.00151559,0.00034927,-0.00044811,-0.00151530
 ,0.00002815,-0.00112519,-0.00115966,-0.00049015,-0.00112187,-0.0010431
 3,-0.00095034,-0.00042895,-0.00122689,-0.00131755,-0.00026193,-0.00088
 103,-0.00131753,0.00026289,-0.00088047,-0.00144413,0.00068837,-0.00015
 394,-0.00115638,0.00111866,-0.00003929,0.00006095,0.00156079,0.0004150
 4,-0.00029049,0.00138625,0.00077063,-0.00105732,0.00111726,0.00047527,
 -0.00127712,0.00069029,0.00069056,-0.00152036,0.00042543,0.00029962,-0
 .00151980,-0.00042579,0.00030024,-0.00144371,-0.00068960,-0.00015345,-
 0.00115642,-0.00111822,-0.00003979,-0.00056471,-0.00138268,-0.00060290
 ,0.00045752,-0.00031535,-0.00151463,0.00047620,-0.00141154,0.00064311,
 0.00072682,-0.00127892,0.00015517,0.00045357,-0.00098588,0.00041179,0.
 00058772,-0.00034435,0.00129614,0.00084389,-0.00045134,0.00128376,-0.0
 0006249,-0.00112248,0.00115470,-0.00029154,-0.00138590,0.00077105,0.00
 006116,-0.00156118,0.00041570,-0.00009426,-0.00155919,-0.00041229,0.00
 020292,-0.00140994,-0.00078140,0.00068237,-0.00125294,-0.00048700,0.00
 045685,0.00098363,0.00039827,0.00058716,0.00034350,0.00129629,0.000842
 64,0.00045211,0.00128448,0.00071125,0.00000032,0.00145871,-0.00014922,
 -0.00000005,0.00161482,-0.00041213,-0.00043181,0.00149822,-0.00105697,
 -0.00111762,0.00047509,-0.00127788,-0.00068922,0.00069048,-0.00088667,
 -0.00026074,0.00131544,-0.00088744,0.00026067,0.00131530,-0.00041186,0
 .00043152,0.00149857,-0.00006319,0.00112280,0.00115438,0.00045467,0.00
 113552,0.00106279,0.00047676,0.00141103,0.00064177,0.00072429,0.001279
 13,0.00015495,0.00062196,-0.00091194,-0.00083441,0.00062912,0.00091150
 ,-0.00082650,0.00045371,-0.00113628,0.00106323,0.00080397,-0.00080046,
 -0.00046158,0.00079715,0.00080367,-0.00045728,0.00140199,0.00044574,-0
 .00014672,0.00139181,-0.00045025,-0.00015313,0.00096011,0.00071216,0.0
 0050256,0.00019300,0.00015541,0.00010001,0.00031103,0.00019140,0.00019
 983,0.00015999,0.00013676,0.00010263,0.00095932,-0.00071324,0.00050219
 ,0.00016114,-0.00013705,0.00010198,0.00031167,-0.00019102,0.00019896,0
 .00019325,-0.00015537,0.00010032,0.00110377,-0.00078711,-0.00073070,0.
 00036178,-0.00017803,-0.00025288,0.00032471,-0.00028173,-0.00013857,0.
 00109714,0.00079409,-0.00073884,0.00032430,0.00028181,-0.00013825,0.00
 036037,0.00017740,-0.00025253\\\@


 IT IS UNWORTHY OF EXCELLENT MEN TO LOSE HOURS LIKE SLAVES IN THE LABOR
 OF CALCULATION WHICH COULD BE SAFELY RELEGATED TO ANYONE ELSE
 IF A MACHINE WERE USED.
    -- G.W. VON LEIBNIZ
 Job cpu time:       0 days  0 hours  0 minutes  1.1 seconds.
 Elapsed time:       0 days 14 hours 26 minutes 21.4 seconds.
 File lengths (MBytes):  RWF=     22 Int=      0 D2E=      0 Chk=      3 Scr=      2
 Normal termination of Gaussian 16 at Wed Mar  6 19:06:20 2024.
