 Entering Gaussian System, Link 0=/mlatom/software/Gaussian/g16-avx2/g16
 Input=gaussian.com
 Output=gaussian.log
 Initial command:
 /mlatom/software/Gaussian/g16-avx2/l1.exe "/mlatom/home/huangyh/projects/delta_learning/paper/revision1/Starting_from_ub3lyp_d4/da/b3lyp/xtb/r/Gau-137178.inp" -scrdir="/mlatom/home/huangyh/projects/delta_learning/paper/revision1/Starting_from_ub3lyp_d4/da/b3lyp/xtb/r/"
 Entering Link 1 = /mlatom/software/Gaussian/g16-avx2/l1.exe PID=    137179.
  
 Copyright (c) 1988,1990,1992,1993,1995,1998,2003,2009,2016,
            Gaussian, Inc.  All Rights Reserved.
  
 This is part of the Gaussian(R) 16 program.  It is based on
 the Gaussian(R) 09 system (copyright 2009, Gaussian, Inc.),
 the Gaussian(R) 03 system (copyright 2003, Gaussian, Inc.),
 the Gaussian(R) 98 system (copyright 1998, Gaussian, Inc.),
 the Gaussian(R) 94 system (copyright 1995, Gaussian, Inc.),
 the Gaussian 92(TM) system (copyright 1992, Gaussian, Inc.),
 the Gaussian 90(TM) system (copyright 1990, Gaussian, Inc.),
 the Gaussian 88(TM) system (copyright 1988, Gaussian, Inc.),
 the Gaussian 86(TM) system (copyright 1986, Carnegie Mellon
 University), and the Gaussian 82(TM) system (copyright 1983,
 Carnegie Mellon University). Gaussian is a federally registered
 trademark of Gaussian, Inc.
  
 This software contains proprietary and confidential information,
 including trade secrets, belonging to Gaussian, Inc.
  
 This software is provided under written license and may be
 used, copied, transmitted, or stored only in accord with that
 written license.
  
 The following legend is applicable only to US Government
 contracts under FAR:
  
                    RESTRICTED RIGHTS LEGEND
  
 Use, reproduction and disclosure by the US Government is
 subject to restrictions as set forth in subparagraphs (a)
 and (c) of the Commercial Computer Software - Restricted
 Rights clause in FAR 52.227-19.
  
 Gaussian, Inc.
 340 Quinnipiac St., Bldg. 40, Wallingford CT 06492
  
  
 ---------------------------------------------------------------
 Warning -- This program may not be used in any manner that
 competes with the business of Gaussian, Inc. or will provide
 assistance to any competitor of Gaussian, Inc.  The licensee
 of this program is prohibited from giving any competitor of
 Gaussian, Inc. access to this program.  By using this program,
 the user acknowledges that Gaussian, Inc. is engaged in the
 business of creating and licensing software in the field of
 computational chemistry and represents and warrants to the
 licensee that it is not a competitor of Gaussian, Inc. and that
 it will not use this program in any manner prohibited above.
 ---------------------------------------------------------------
  

 Cite this work as:
 Gaussian 16, Revision A.03,
 M. J. Frisch, G. W. Trucks, H. B. Schlegel, G. E. Scuseria, 
 M. A. Robb, J. R. Cheeseman, G. Scalmani, V. Barone, 
 G. A. Petersson, H. Nakatsuji, X. Li, M. Caricato, A. V. Marenich, 
 J. Bloino, B. G. Janesko, R. Gomperts, B. Mennucci, H. P. Hratchian, 
 J. V. Ortiz, A. F. Izmaylov, J. L. Sonnenberg, D. Williams-Young, 
 F. Ding, F. Lipparini, F. Egidi, J. Goings, B. Peng, A. Petrone, 
 T. Henderson, D. Ranasinghe, V. G. Zakrzewski, J. Gao, N. Rega, 
 G. Zheng, W. Liang, M. Hada, M. Ehara, K. Toyota, R. Fukuda, 
 J. Hasegawa, M. Ishida, T. Nakajima, Y. Honda, O. Kitao, H. Nakai, 
 T. Vreven, K. Throssell, J. A. Montgomery, Jr., J. E. Peralta, 
 F. Ogliaro, M. J. Bearpark, J. J. Heyd, E. N. Brothers, K. N. Kudin, 
 V. N. Staroverov, T. A. Keith, R. Kobayashi, J. Normand, 
 K. Raghavachari, A. P. Rendell, J. C. Burant, S. S. Iyengar, 
 J. Tomasi, M. Cossi, J. M. Millam, M. Klene, C. Adamo, R. Cammi, 
 J. W. Ochterski, R. L. Martin, K. Morokuma, O. Farkas, 
 J. B. Foresman, and D. J. Fox, Gaussian, Inc., Wallingford CT, 2016.
 
 ******************************************
 Gaussian 16:  ES64L-G16RevA.03 25-Dec-2016
                27-May-2025 
 ******************************************
 %nproc=1
 Will use up to    1 processors via shared memory.
 ----------------------------------------------------------------------
 #p Freq external='/mlatom/software/miniconda3/bin/python /mlatom/softw
 are/mlatom_xacs/mlatom/interfaces/gaussian_interface.py model_predict_
 kwargs'
 ----------------------------------------------------------------------
 1/10=4,18=10,30=1,38=1/1,3;
 2/12=2,17=6,18=5,40=1/2;
 3/11=9,25=1,30=1,41=9900000,43=2,71=2,140=1/1;
 4/20=17,22=2,24=3,113=1,114=1/2;
 6/7=2,8=2,9=2,10=2/1;
 7/8=1,25=1,44=-1/16;
 1/10=4,18=10,30=1/3;
 99//99;
 Leave Link    1 at Tue May 27 14:37:15 2025, MaxMem=           0 cpu:               0.0 elap:               0.0
 (Enter /mlatom/software/Gaussian/g16-avx2/l101.exe)
 ------------------------------------
 7851eb62-2bb3-4c30-ba17-677380bbc5d3
 ------------------------------------
 Symbolic Z-matrix:
 Charge =  0 Multiplicity = 1
 C                     0.95566   1.48754  -0.62456 
 C                     1.4962    0.82472   0.39124 
 H                     0.44291   0.98586  -1.42744 
 H                     0.99328   2.56208  -0.68192 
 H                     1.97061   1.37765   1.19288 
 C                     1.49432  -0.62072   0.55724 
 C                     1.29972  -1.51001  -0.40975 
 H                     1.68751  -0.96798   1.56485 
 H                     1.31234  -2.56903  -0.21498 
 H                     1.13437  -1.21552  -1.43237 
 C                    -2.51405   0.55182   0.26697 
 C                    -2.36377  -0.70979  -0.07775 
 H                    -3.47899   1.03259   0.27236 
 H                    -1.67555   1.16298   0.55851 
 H                    -1.39611  -1.1848   -0.08077 
 H                    -3.19885  -1.32517  -0.3715 
 
 ITRead=  0  0  0  0  0  0  0  0  0  0  0  0  0  0  0  0
 MicOpt= -1 -1 -1 -1 -1 -1 -1 -1 -1 -1 -1 -1 -1 -1 -1 -1
 NAtoms=     16 NQM=       16 NQMF=       0 NMMI=      0 NMMIF=      0
                NMic=       0 NMicF=      0.
                    Isotopes and Nuclear Properties:
 (Nuclear quadrupole moments (NQMom) in fm**2, nuclear magnetic moments (NMagM)
  in nuclear magnetons)

  Atom         1           2           3           4           5           6           7           8           9          10
 IAtWgt=          12          12           1           1           1          12          12           1           1           1
 AtmWgt=  12.0000000  12.0000000   1.0078250   1.0078250   1.0078250  12.0000000  12.0000000   1.0078250   1.0078250   1.0078250
 NucSpn=           0           0           1           1           1           0           0           1           1           1
 AtZEff=  -0.0000000  -0.0000000  -0.0000000  -0.0000000  -0.0000000  -0.0000000  -0.0000000  -0.0000000  -0.0000000  -0.0000000
 NQMom=    0.0000000   0.0000000   0.0000000   0.0000000   0.0000000   0.0000000   0.0000000   0.0000000   0.0000000   0.0000000
 NMagM=    0.0000000   0.0000000   2.7928460   2.7928460   2.7928460   0.0000000   0.0000000   2.7928460   2.7928460   2.7928460
 AtZNuc=   6.0000000   6.0000000   1.0000000   1.0000000   1.0000000   6.0000000   6.0000000   1.0000000   1.0000000   1.0000000

  Atom        11          12          13          14          15          16
 IAtWgt=          12          12           1           1           1           1
 AtmWgt=  12.0000000  12.0000000   1.0078250   1.0078250   1.0078250   1.0078250
 NucSpn=           0           0           1           1           1           1
 AtZEff=  -0.0000000  -0.0000000  -0.0000000  -0.0000000  -0.0000000  -0.0000000
 NQMom=    0.0000000   0.0000000   0.0000000   0.0000000   0.0000000   0.0000000
 NMagM=    0.0000000   0.0000000   2.7928460   2.7928460   2.7928460   2.7928460
 AtZNuc=   6.0000000   6.0000000   1.0000000   1.0000000   1.0000000   1.0000000
 Leave Link  101 at Tue May 27 14:37:15 2025, MaxMem=   104857600 cpu:               0.1 elap:               0.4
 (Enter /mlatom/software/Gaussian/g16-avx2/l103.exe)

 GradGradGradGradGradGradGradGradGradGradGradGradGradGradGradGradGradGrad
 Berny optimization.
 Initialization pass.
 Trust Radius=3.00D-01 FncErr=1.00D-07 GrdErr=1.00D-07 EigMax=2.50D+02 EigMin=1.00D-04
 Number of steps in this run=      2 maximum allowed number of steps=      2.
 GradGradGradGradGradGradGradGradGradGradGradGradGradGradGradGradGradGrad

 Leave Link  103 at Tue May 27 14:37:15 2025, MaxMem=   104857600 cpu:               0.0 elap:               0.1
 (Enter /mlatom/software/Gaussian/g16-avx2/l202.exe)
                          Input orientation:                          
 ---------------------------------------------------------------------
 Center     Atomic      Atomic             Coordinates (Angstroms)
 Number     Number       Type             X           Y           Z
 ---------------------------------------------------------------------
      1          6           0        0.955659    1.487541   -0.624564
      2          6           0        1.496203    0.824716    0.391240
      3          1           0        0.442913    0.985861   -1.427439
      4          1           0        0.993284    2.562082   -0.681925
      5          1           0        1.970605    1.377652    1.192877
      6          6           0        1.494318   -0.620716    0.557244
      7          6           0        1.299719   -1.510009   -0.409752
      8          1           0        1.687510   -0.967982    1.564855
      9          1           0        1.312340   -2.569028   -0.214984
     10          1           0        1.134367   -1.215520   -1.432367
     11          6           0       -2.514052    0.551817    0.266974
     12          6           0       -2.363769   -0.709793   -0.077745
     13          1           0       -3.478985    1.032590    0.272360
     14          1           0       -1.675547    1.162983    0.558514
     15          1           0       -1.396113   -1.184799   -0.080774
     16          1           0       -3.198847   -1.325174   -0.371498
 ---------------------------------------------------------------------
                    Distance matrix (angstroms):
                    1          2          3          4          5
     1  C    0.000000
     2  C    1.327924   0.000000
     3  H    1.076662   2.107838   0.000000
     4  H    1.076728   2.103105   1.828435   0.000000
     5  H    2.084534   1.083245   3.058334   2.423410   0.000000
     6  C    2.476201   1.454935   2.761433   3.452069   2.150432
     7  C    3.024868   2.476112   2.828280   4.092665   3.370029
     8  H    3.370275   2.151218   3.784224   4.241618   2.391759
     9  H    4.092766   3.452363   3.855281   5.162182   4.241660
    10  H    2.826840   2.760259   2.307425   3.854004   3.783615
    11  C    3.702609   4.021451   3.435560   4.152467   4.653113
    12  C    4.018195   4.180197   3.546037   4.726521   4.975813
    13  H    4.547254   4.980948   4.274668   4.821950   5.537550
    14  H    2.903146   3.194120   2.909167   3.258654   3.707145
    15  H    3.601103   3.553370   3.147584   4.484386   4.418499
    16  H    5.023478   5.219893   4.440530   5.725477   6.039518
                    6          7          8          9         10
     6  C    0.000000
     7  C    1.328078   0.000000
     8  H    1.083142   2.084046   0.000000
     9  H    2.103657   1.076855   2.423206   0.000000
    10  H    2.107584   1.076943   3.057872   1.829120   0.000000
    11  C    4.186421   4.387931   4.652678   4.961173   4.395703
    12  C    3.911007   3.764534   4.379230   4.121816   3.785197
    13  H    5.248650   5.455832   5.689069   6.013814   5.407690
    14  H    3.637256   4.115171   4.106567   4.842900   4.185272
    15  H    3.013278   2.735233   3.501976   3.044638   2.868985
    16  H    4.835765   4.502525   5.268162   4.682145   4.462534
                   11         12         13         14         15
    11  C    0.000000
    12  C    1.316464   0.000000
    13  H    1.078085   2.098137   0.000000
    14  H    1.077780   2.094222   1.830649   0.000000
    15  H    2.094410   1.077960   3.062658   2.449255   0.000000
    16  H    2.097542   1.078118   2.460097   3.062072   1.831414
                   16
    16  H    0.000000
 Stoichiometry    C6H10
 Framework group  C1[X(C6H10)]
 Deg. of freedom    42
 Full point group                 C1      NOp   1
 Largest Abelian subgroup         C1      NOp   1
 Largest concise Abelian subgroup C1      NOp   1
                         Standard orientation:                         
 ---------------------------------------------------------------------
 Center     Atomic      Atomic             Coordinates (Angstroms)
 Number     Number       Type             X           Y           Z
 ---------------------------------------------------------------------
      1          6           0        0.955659   -1.487541    0.624564
      2          6           0        1.496203   -0.824716   -0.391240
      3          1           0        0.442913   -0.985861    1.427439
      4          1           0        0.993284   -2.562082    0.681925
      5          1           0        1.970605   -1.377652   -1.192877
      6          6           0        1.494318    0.620716   -0.557244
      7          6           0        1.299719    1.510009    0.409752
      8          1           0        1.687510    0.967982   -1.564855
      9          1           0        1.312340    2.569028    0.214984
     10          1           0        1.134367    1.215520    1.432367
     11          6           0       -2.514052   -0.551817   -0.266974
     12          6           0       -2.363769    0.709793    0.077745
     13          1           0       -3.478985   -1.032590   -0.272360
     14          1           0       -1.675547   -1.162983   -0.558514
     15          1           0       -1.396113    1.184799    0.080774
     16          1           0       -3.198847    1.325174    0.371498
 ---------------------------------------------------------------------
 Rotational constants (GHZ):           4.1133358           1.7530421           1.3783049
 Leave Link  202 at Tue May 27 14:37:15 2025, MaxMem=   104857600 cpu:               0.0 elap:               0.3
 (Enter /mlatom/software/Gaussian/g16-avx2/l301.exe)
 Standard basis: STO-3G (5D, 7F)
 Ernie: Thresh=  0.10000D-02 Tol=  0.10000D-05 Strict=F.
 There are    40 symmetry adapted cartesian basis functions of A   symmetry.
 There are    40 symmetry adapted basis functions of A   symmetry.
    40 basis functions,   120 primitive gaussians,    40 cartesian basis functions
    23 alpha electrons       23 beta electrons
       nuclear repulsion energy       202.1743733100 Hartrees.
 IExCor=    0 DFT=F Ex=HF Corr=None ExCW=0 ScaHFX=  1.000000
 ScaDFX=  1.000000  1.000000  1.000000  1.000000 ScalE2=  1.000000  1.000000
 IRadAn=      5 IRanWt=     -1 IRanGd=            0 ICorTp=0 IEmpDi=  4
 NAtoms=   16 NActive=   16 NUniq=   16 SFac= 1.00D+00 NAtFMM=   60 NAOKFM=F Big=F
 Integral buffers will be    131072 words long.
 Raffenetti 1 integral format.
 Two-electron integral symmetry is turned on.
 Leave Link  301 at Tue May 27 14:37:16 2025, MaxMem=   104857600 cpu:               0.0 elap:               0.1
 (Enter /mlatom/software/Gaussian/g16-avx2/l402.exe)
 External calculation of energy, first and second derivatives.
 Running external command "/mlatom/software/miniconda3/bin/python /mlatom/software/mlatom_xacs/mlatom/interfaces/gaussian_interface.py model_predict_kwargs R"
         input file       "/mlatom/home/huangyh/projects/delta_learning/paper/revision1/Starting_from_ub3lyp_d4/da/b3lyp/xtb/r/Gau-137179.EIn"
         output file      "/mlatom/home/huangyh/projects/delta_learning/paper/revision1/Starting_from_ub3lyp_d4/da/b3lyp/xtb/r/Gau-137179.EOu"
         message file     "/mlatom/home/huangyh/projects/delta_learning/paper/revision1/Starting_from_ub3lyp_d4/da/b3lyp/xtb/r/Gau-137179.EMs"
         fchk file        "/mlatom/home/huangyh/projects/delta_learning/paper/revision1/Starting_from_ub3lyp_d4/da/b3lyp/xtb/r/Gau-137179.EFC"
         mat. el file     "/mlatom/home/huangyh/projects/delta_learning/paper/revision1/Starting_from_ub3lyp_d4/da/b3lyp/xtb/r/Gau-137179.EUF"
 Recovered energy= -17.8233676636     dipole=      0.094038469359     -0.012707901265     -0.017791061771
 Energy=    -17.8233677     NIter=   0.
 Dipole moment=       0.094038      -0.012708      -0.017791
 Leave Link  402 at Tue May 27 14:37:17 2025, MaxMem=   104857600 cpu:               0.1 elap:               1.8
 (Enter /mlatom/software/Gaussian/g16-avx2/l601.exe)
 Leave Link  601 at Tue May 27 14:37:17 2025, MaxMem=   104857600 cpu:               0.0 elap:               0.0
 (Enter /mlatom/software/Gaussian/g16-avx2/l716.exe)
 Dipole        = 9.40384694D-02-1.27079013D-02-1.77910618D-02
 Full mass-weighted force constant matrix:
 Low frequencies ---   -0.0235   -0.0169   -0.0123    0.0058    0.0173    0.0237
 Low frequencies ---   14.6249   27.5173   27.8754
 Diagonal vibrational polarizability:
        0.0000000       0.0000000       0.0000000
 Harmonic frequencies (cm**-1), IR intensities (KM/Mole), Raman scattering
 activities (A**4/AMU), depolarization ratios for plane and unpolarized
 incident light, reduced masses (AMU), force constants (mDyne/A),
 and normal coordinates:
                      1                      2                      3
                      A                      A                      A
 Frequencies --     14.6249                27.5173                27.8754
 Red. masses --      2.8044                 1.8917                 2.9057
 Frc consts  --      0.0004                 0.0008                 0.0013
 IR Inten    --      0.0000                 0.0000                 0.0000
  Atom  AN      X      Y      Z        X      Y      Z        X      Y      Z
     1   6    -0.13   0.06  -0.07    -0.11   0.02  -0.06     0.13  -0.10  -0.07
     2   6    -0.04   0.05  -0.03     0.13  -0.01   0.05     0.13  -0.02  -0.02
     3   1    -0.10   0.07  -0.06    -0.31   0.03  -0.20     0.04  -0.17  -0.08
     4   1    -0.24   0.05  -0.13    -0.10   0.02  -0.01     0.21  -0.10  -0.11
     5   1    -0.08   0.04  -0.05     0.33  -0.03   0.18     0.22   0.05  -0.01
     6   6     0.11   0.06   0.04     0.14  -0.01   0.00     0.02  -0.01   0.03
     7   6     0.14   0.04   0.06    -0.10   0.01  -0.07    -0.18  -0.06   0.03
     8   1     0.21   0.09   0.06     0.35  -0.04   0.03     0.11   0.03   0.06
     9   1     0.26   0.05   0.11    -0.07   0.01  -0.10    -0.24  -0.05   0.06
    10   1     0.05   0.01   0.04    -0.31   0.04  -0.10    -0.28  -0.10   0.00
    11   6    -0.14  -0.13   0.15    -0.05   0.01  -0.02    -0.01   0.04   0.19
    12   6     0.06  -0.07  -0.14     0.01  -0.02   0.10    -0.07   0.14  -0.16
    13   1    -0.20   0.00   0.32    -0.04  -0.02   0.20     0.01  -0.00   0.32
    14   1    -0.24  -0.31   0.23    -0.12   0.08  -0.33     0.01   0.00   0.35
    15   1     0.13  -0.21  -0.31    -0.01   0.01  -0.12    -0.09   0.19  -0.29
    16   1     0.16   0.10  -0.22     0.07  -0.09   0.42    -0.10   0.19  -0.32
                      4                      5                      6
                      A                      A                      A
 Frequencies --     58.2300                67.1490                91.4692
 Red. masses --      2.3410                 2.7188                 1.2857
 Frc consts  --      0.0047                 0.0072                 0.0063
 IR Inten    --      0.0000                 0.0000                 0.0000
  Atom  AN      X      Y      Z        X      Y      Z        X      Y      Z
     1   6    -0.15   0.01  -0.03     0.01  -0.02   0.02    -0.08   0.01  -0.04
     2   6    -0.12  -0.00  -0.02    -0.05   0.01   0.01     0.01   0.00   0.00
     3   1    -0.09   0.02  -0.00    -0.02  -0.05   0.02    -0.14   0.01  -0.08
     4   1    -0.22   0.01  -0.06     0.08  -0.02   0.02    -0.09   0.01  -0.04
     5   1    -0.17  -0.02  -0.04    -0.02   0.04   0.00     0.07  -0.00   0.04
     6   6    -0.01   0.00   0.01    -0.15   0.01   0.00     0.02   0.00  -0.01
     7   6    -0.03  -0.00   0.01    -0.16  -0.00   0.01    -0.07   0.01  -0.03
     8   1     0.09   0.01   0.03    -0.22   0.02  -0.01     0.11  -0.01   0.01
     9   1     0.06   0.00   0.03    -0.24  -0.00   0.01    -0.05   0.01  -0.04
    10   1    -0.14  -0.01  -0.01    -0.09  -0.01   0.02    -0.15   0.02  -0.04
    11   6     0.27  -0.03   0.07     0.01   0.02  -0.01     0.06  -0.01   0.03
    12   6     0.02   0.03  -0.04     0.32  -0.01  -0.03     0.06  -0.01   0.05
    13   1     0.40  -0.29   0.32    -0.08   0.20   0.20     0.00   0.12  -0.42
    14   1     0.37   0.17  -0.09    -0.17  -0.14  -0.19     0.13  -0.13   0.47
    15   1    -0.11   0.28  -0.29     0.41  -0.19  -0.23     0.11  -0.13   0.49
    16   1    -0.08  -0.18   0.12     0.50   0.14   0.15    -0.01   0.11  -0.40
                      7                      8                      9
                      A                      A                      A
 Frequencies --    114.5275               291.2275               461.6481
 Red. masses --      1.5536                 2.6379                 1.2936
 Frc consts  --      0.0120                 0.1318                 0.1624
 IR Inten    --      0.0000                 0.0000                 0.0000
  Atom  AN      X      Y      Z        X      Y      Z        X      Y      Z
     1   6    -0.08  -0.00  -0.05     0.00   0.25   0.05     0.03  -0.03   0.03
     2   6     0.11   0.01   0.06     0.04  -0.01  -0.09    -0.09   0.05   0.02
     3   1    -0.42  -0.00  -0.26     0.02   0.47  -0.08    -0.34  -0.18  -0.11
     4   1     0.08   0.01   0.06    -0.08   0.26   0.32     0.46  -0.01   0.14
     5   1     0.42   0.04   0.22     0.02  -0.12  -0.01     0.24   0.06   0.19
     6   6    -0.12  -0.00  -0.02     0.03  -0.02  -0.10    -0.05   0.04  -0.08
     7   6     0.08  -0.01   0.02    -0.05  -0.23   0.09     0.04  -0.03  -0.00
     8   1    -0.46  -0.02  -0.10     0.00   0.11  -0.05     0.31   0.04  -0.00
     9   1    -0.11  -0.01   0.01    -0.16  -0.18   0.34     0.44  -0.00   0.20
    10   1     0.46  -0.03   0.08    -0.00  -0.48   0.02    -0.34  -0.17  -0.10
    11   6     0.03  -0.01   0.02    -0.00  -0.00  -0.00     0.00  -0.00   0.00
    12   6    -0.01   0.01  -0.02     0.00  -0.00   0.00     0.00  -0.00   0.00
    13   1     0.04  -0.04   0.05    -0.00   0.00  -0.00    -0.00   0.00  -0.01
    14   1     0.04   0.01   0.03    -0.00  -0.00   0.00    -0.00  -0.01   0.01
    15   1    -0.02   0.04  -0.04     0.00  -0.00   0.00    -0.00   0.00   0.01
    16   1    -0.03  -0.01  -0.03     0.00   0.00  -0.00    -0.00   0.00  -0.01
                     10                     11                     12
                      A                      A                      A
 Frequencies --    568.0107               736.1221               844.3770
 Red. masses --      1.9069                 1.9146                 1.0439
 Frc consts  --      0.3625                 0.6112                 0.4385
 IR Inten    --      0.0000                 0.0000                 0.0000
  Atom  AN      X      Y      Z        X      Y      Z        X      Y      Z
     1   6    -0.04  -0.06   0.04     0.03  -0.01   0.03     0.00   0.00   0.00
     2   6    -0.01   0.11   0.15    -0.18  -0.01  -0.09     0.00   0.00   0.00
     3   1     0.08  -0.37   0.31    -0.40  -0.08  -0.20    -0.00  -0.00  -0.00
     4   1    -0.09  -0.08  -0.39     0.42   0.01   0.20    -0.01  -0.00  -0.01
     5   1    -0.20   0.01   0.09     0.13  -0.03   0.10    -0.00   0.00  -0.00
     6   6     0.10   0.08  -0.14     0.19   0.01   0.05     0.00  -0.00   0.00
     7   6    -0.01  -0.07  -0.04    -0.05   0.02   0.00    -0.00  -0.00  -0.00
     8   1    -0.10  -0.02  -0.20    -0.16   0.04  -0.01    -0.00  -0.00  -0.00
     9   1    -0.32  -0.01   0.25    -0.46  -0.00  -0.12     0.01  -0.00  -0.00
    10   1     0.23  -0.42  -0.11     0.45   0.07   0.10     0.01  -0.00   0.00
    11   6    -0.00   0.00   0.00     0.00  -0.00   0.00     0.04  -0.00  -0.01
    12   6    -0.00   0.00  -0.00    -0.00   0.00  -0.00     0.04  -0.00  -0.01
    13   1     0.00  -0.00   0.00     0.00  -0.00   0.00    -0.19   0.44   0.15
    14   1     0.00   0.01  -0.00    -0.00   0.00  -0.01    -0.29  -0.40  -0.08
    15   1     0.00  -0.00  -0.00     0.00  -0.00   0.01    -0.19   0.43   0.15
    16   1     0.00   0.00   0.00    -0.00  -0.00   0.00    -0.29  -0.40  -0.07
                     13                     14                     15
                      A                      A                      A
 Frequencies --    875.8110               886.4349               896.2561
 Red. masses --      1.5139                 1.2797                 1.3468
 Frc consts  --      0.6842                 0.5925                 0.6374
 IR Inten    --      0.0000                 0.0000                 0.0000
  Atom  AN      X      Y      Z        X      Y      Z        X      Y      Z
     1   6     0.01   0.00   0.01     0.09  -0.00   0.05    -0.10  -0.01  -0.06
     2   6    -0.00   0.00  -0.00    -0.03  -0.01  -0.02     0.05   0.00   0.03
     3   1    -0.03  -0.00  -0.02    -0.21   0.02  -0.15     0.28   0.03   0.16
     4   1    -0.07  -0.00  -0.04    -0.54  -0.04  -0.27     0.50   0.03   0.30
     5   1     0.02   0.00   0.01     0.20   0.03   0.09    -0.17  -0.00  -0.10
     6   6     0.00  -0.00   0.00     0.03   0.01   0.01     0.05   0.00   0.01
     7   6    -0.01  -0.00  -0.00    -0.10   0.00  -0.02    -0.11  -0.00  -0.02
     8   1    -0.01  -0.00  -0.00    -0.21  -0.03  -0.05    -0.20   0.00  -0.04
     9   1     0.07   0.00   0.01     0.59   0.03   0.14     0.58   0.01   0.10
    10   1     0.03  -0.00   0.00     0.25  -0.03   0.03     0.32   0.01   0.06
    11   6     0.02  -0.04   0.15    -0.00   0.00  -0.01    -0.00  -0.00  -0.00
    12   6    -0.02   0.04  -0.14     0.00  -0.00   0.01    -0.00   0.00  -0.00
    13   1    -0.07   0.14  -0.48     0.01  -0.03   0.04     0.00  -0.00   0.00
    14   1    -0.06   0.13  -0.45     0.01  -0.00   0.04     0.00   0.00   0.00
    15   1     0.06  -0.13   0.45    -0.00   0.01  -0.04     0.00  -0.00   0.01
    16   1     0.07  -0.13   0.47    -0.00   0.02  -0.05     0.00  -0.00   0.01
                     16                     17                     18
                      A                      A                      A
 Frequencies --    904.8110              1011.3047              1019.1176
 Red. masses --      1.6892                 1.0820                 1.1069
 Frc consts  --      0.8148                 0.6520                 0.6773
 IR Inten    --      0.0000                 0.0000                 0.0000
  Atom  AN      X      Y      Z        X      Y      Z        X      Y      Z
     1   6    -0.01  -0.12   0.01    -0.02  -0.01  -0.01     0.03  -0.01   0.01
     2   6     0.01  -0.12  -0.02    -0.05   0.00  -0.02     0.04   0.02   0.03
     3   1     0.13   0.31  -0.15     0.40   0.05   0.22    -0.33   0.03  -0.24
     4   1    -0.22  -0.10   0.51    -0.08  -0.01  -0.01    -0.01  -0.01   0.05
     5   1     0.05  -0.04  -0.05     0.49   0.06   0.26    -0.45   0.03  -0.27
     6   6     0.01   0.12  -0.04    -0.05   0.00  -0.02    -0.06  -0.02  -0.00
     7   6     0.01   0.13  -0.01    -0.02  -0.01  -0.00    -0.03   0.01  -0.01
     8   1    -0.00   0.02  -0.08     0.50   0.05   0.10     0.56  -0.04   0.11
     9   1    -0.16   0.21   0.50    -0.06  -0.01  -0.04    -0.03   0.02   0.04
    10   1    -0.03  -0.35  -0.13     0.42   0.04   0.08     0.45  -0.05   0.05
    11   6     0.00  -0.00   0.00    -0.00   0.00  -0.01    -0.00  -0.00   0.00
    12   6     0.00   0.00  -0.00    -0.00   0.00  -0.01     0.00  -0.00   0.00
    13   1    -0.00   0.01  -0.01     0.01  -0.02   0.07     0.01  -0.01   0.03
    14   1    -0.00  -0.00  -0.01     0.01  -0.02   0.06    -0.01   0.02  -0.05
    15   1    -0.00   0.00   0.00     0.01  -0.02   0.07     0.00  -0.01   0.02
    16   1    -0.00  -0.01   0.01     0.01  -0.02   0.06    -0.01   0.02  -0.05
                     19                     20                     21
                      A                      A                      A
 Frequencies --   1025.4332              1039.6216              1066.3054
 Red. masses --      1.1569                 1.0094                 1.6219
 Frc consts  --      0.7167                 0.6428                 1.0865
 IR Inten    --      0.0000                 0.0000                 0.0000
  Atom  AN      X      Y      Z        X      Y      Z        X      Y      Z
     1   6     0.01   0.00   0.00    -0.00   0.00   0.00    -0.02   0.12   0.01
     2   6     0.01  -0.00   0.00     0.00  -0.00  -0.00     0.02  -0.08  -0.07
     3   1    -0.08  -0.01  -0.04     0.01  -0.01   0.02    -0.06  -0.32   0.23
     4   1     0.00   0.00   0.00     0.00   0.00  -0.00     0.26   0.09  -0.40
     5   1    -0.08  -0.01  -0.04     0.02  -0.01   0.01     0.05  -0.24   0.07
     6   6     0.00   0.00   0.00     0.00   0.00  -0.00    -0.03  -0.07   0.09
     7   6     0.00   0.00   0.00     0.00   0.00   0.00     0.00   0.11  -0.04
     8   1    -0.05  -0.00  -0.01    -0.05   0.01  -0.01     0.05  -0.27   0.02
     9   1     0.01   0.00   0.01     0.00   0.00  -0.00    -0.06   0.19   0.45
    10   1    -0.05  -0.00  -0.01    -0.05   0.00  -0.00     0.07  -0.38  -0.15
    11   6    -0.01   0.02  -0.08    -0.00   0.00  -0.00    -0.00   0.00   0.00
    12   6    -0.01   0.02  -0.08    -0.00   0.00  -0.01     0.00   0.00   0.00
    13   1     0.06  -0.12   0.42     0.07  -0.14   0.49     0.00  -0.00  -0.01
    14   1     0.07  -0.14   0.50    -0.06   0.13  -0.45     0.00  -0.00   0.00
    15   1     0.06  -0.13   0.44     0.07  -0.15   0.52    -0.00   0.00  -0.01
    16   1     0.07  -0.14   0.50    -0.06   0.12  -0.43    -0.00  -0.00   0.00
                     22                     23                     24
                      A                      A                      A
 Frequencies --   1074.2049              1186.9434              1281.6936
 Red. masses --      1.6878                 1.5487                 1.1750
 Frc consts  --      1.1475                 1.2855                 1.1372
 IR Inten    --      0.0000                 0.0000                 0.0000
  Atom  AN      X      Y      Z        X      Y      Z        X      Y      Z
     1   6    -0.03   0.01   0.07    -0.00  -0.00  -0.00    -0.04   0.01   0.07
     2   6     0.07  -0.14  -0.05    -0.00   0.00  -0.00     0.02  -0.04  -0.02
     3   1    -0.17  -0.30   0.17    -0.00  -0.00  -0.00    -0.07  -0.15   0.14
     4   1     0.05  -0.02  -0.16     0.00   0.00   0.00    -0.01  -0.01   0.01
     5   1    -0.13  -0.53   0.11     0.00   0.00  -0.00     0.15   0.55  -0.34
     6   6    -0.01   0.12  -0.10     0.00   0.00   0.00     0.00  -0.03   0.03
     7   6    -0.02   0.01   0.07     0.00  -0.00   0.00     0.01  -0.01  -0.07
     8   1     0.07   0.54   0.06    -0.00   0.00  -0.00    -0.07   0.62   0.24
     9   1     0.07  -0.01  -0.13    -0.00  -0.00  -0.00    -0.00  -0.01  -0.02
    10   1     0.04   0.33   0.16    -0.00  -0.00  -0.00     0.02  -0.18  -0.12
    11   6     0.00  -0.00   0.00    -0.15   0.01   0.02     0.00   0.00  -0.00
    12   6     0.00  -0.00   0.00     0.15  -0.01  -0.02    -0.00   0.00   0.00
    13   1    -0.01   0.01  -0.02     0.11  -0.45  -0.15    -0.00   0.00  -0.00
    14   1     0.00  -0.00   0.00     0.21   0.43   0.10     0.00  -0.00   0.00
    15   1    -0.00   0.01  -0.02    -0.10   0.45   0.14    -0.00   0.00  -0.00
    16   1    -0.01  -0.01   0.00    -0.22  -0.43  -0.09    -0.00  -0.00   0.00
                     25                     26                     27
                      A                      A                      A
 Frequencies --   1327.0163              1390.7725              1393.7858
 Red. masses --      1.2932                 1.1175                 1.0795
 Frc consts  --      1.3418                 1.2735                 1.2356
 IR Inten    --      0.0000                 0.0000                 0.0000
  Atom  AN      X      Y      Z        X      Y      Z        X      Y      Z
     1   6     0.04  -0.02  -0.06    -0.01  -0.01   0.02    -0.00   0.00   0.00
     2   6    -0.03   0.07   0.04    -0.02  -0.04   0.05     0.00  -0.00  -0.00
     3   1     0.09   0.20  -0.16     0.09   0.41  -0.20    -0.00  -0.03   0.02
     4   1    -0.02  -0.00   0.01     0.25  -0.00  -0.44    -0.02  -0.00   0.03
     5   1    -0.15  -0.51   0.36     0.01   0.12  -0.04     0.00  -0.00  -0.00
     6   6    -0.01  -0.06   0.06     0.01  -0.05  -0.05    -0.00   0.01   0.00
     7   6     0.01   0.01  -0.07     0.00  -0.01  -0.02    -0.00   0.00   0.00
     8   1    -0.08   0.58   0.26    -0.01   0.13   0.01     0.00  -0.02  -0.01
     9   1     0.01   0.01   0.01    -0.09   0.10   0.49     0.01  -0.01  -0.07
    10   1     0.02  -0.23  -0.13    -0.04   0.45   0.13     0.00  -0.06  -0.02
    11   6    -0.00  -0.00  -0.00    -0.00  -0.01  -0.00    -0.01  -0.05  -0.01
    12   6     0.00   0.00   0.00     0.00   0.01   0.00     0.01   0.05   0.01
    13   1     0.00  -0.01  -0.00     0.02  -0.05  -0.02     0.16  -0.44  -0.15
    14   1    -0.00  -0.01  -0.00    -0.03  -0.05  -0.01    -0.27  -0.41  -0.08
    15   1    -0.01   0.01   0.00    -0.02   0.05   0.02    -0.16   0.45   0.15
    16   1     0.01   0.01   0.00     0.03   0.04   0.01     0.26   0.41   0.08
                     28                     29                     30
                      A                      A                      A
 Frequencies --   1417.0267              1427.4610              1654.4228
 Red. masses --      1.1146                 1.1876                 6.8956
 Frc consts  --      1.3186                 1.4258                11.1203
 IR Inten    --      0.0000                 0.0000                 0.0000
  Atom  AN      X      Y      Z        X      Y      Z        X      Y      Z
     1   6    -0.00  -0.00   0.00     0.02   0.01  -0.03     0.14   0.18  -0.25
     2   6    -0.00  -0.01   0.00     0.01   0.08  -0.03    -0.12  -0.28   0.24
     3   1     0.01   0.04  -0.02    -0.09  -0.42   0.20    -0.01  -0.36  -0.02
     4   1     0.03  -0.00  -0.05    -0.27   0.01   0.45    -0.10   0.19   0.18
     5   1     0.00   0.01  -0.01    -0.01  -0.05   0.04    -0.09   0.11   0.04
     6   6    -0.00   0.01   0.00     0.01  -0.08  -0.02    -0.04   0.33   0.21
     7   6    -0.00   0.00   0.00     0.01  -0.01  -0.03     0.04  -0.24  -0.24
     8   1     0.00  -0.01  -0.00    -0.02   0.06   0.02     0.04  -0.10   0.11
     9   1     0.01  -0.01  -0.04    -0.09   0.10   0.50    -0.06  -0.14   0.24
    10   1     0.00  -0.03  -0.01    -0.03   0.44   0.12     0.04   0.35  -0.08
    11   6    -0.01  -0.07  -0.02    -0.00  -0.01  -0.00     0.00   0.01   0.00
    12   6    -0.01  -0.07  -0.02    -0.00  -0.00  -0.00    -0.00  -0.01  -0.00
    13   1    -0.23   0.41   0.15    -0.01   0.02   0.01     0.00  -0.00  -0.00
    14   1     0.32   0.38   0.06     0.02   0.02   0.00    -0.00   0.00   0.00
    15   1    -0.22   0.42   0.15    -0.03   0.06   0.02    -0.01  -0.00   0.00
    16   1     0.32   0.37   0.06     0.04   0.05   0.01     0.01   0.00  -0.00
                     31                     32                     33
                      A                      A                      A
 Frequencies --   1689.2865              1704.4196              3043.7393
 Red. masses --      5.6619                 5.0752                 1.0763
 Frc consts  --      9.5196                 8.6867                 5.8747
 IR Inten    --      0.0000                 0.0000                 0.0000
  Atom  AN      X      Y      Z        X      Y      Z        X      Y      Z
     1   6     0.13   0.16  -0.24    -0.00   0.00  -0.00     0.00  -0.00  -0.00
     2   6    -0.13  -0.17   0.26    -0.00   0.00   0.00    -0.03   0.03   0.04
     3   1     0.04  -0.29  -0.03    -0.00  -0.00   0.00    -0.02   0.02   0.04
     4   1    -0.14   0.18   0.18    -0.00   0.00   0.00    -0.00   0.05  -0.01
     5   1    -0.02   0.34  -0.02     0.00   0.01  -0.00     0.33  -0.38  -0.56
     6   6     0.06  -0.23  -0.24     0.00  -0.01  -0.01     0.01   0.02  -0.05
     7   6    -0.04   0.21   0.22    -0.00   0.01   0.01    -0.00  -0.00   0.00
     8   1    -0.00   0.34  -0.06    -0.00   0.01  -0.00    -0.12  -0.21   0.60
     9   1     0.02   0.13  -0.26     0.00   0.00  -0.00     0.00   0.04  -0.00
    10   1    -0.01  -0.27   0.10    -0.00  -0.01   0.00     0.01   0.01  -0.04
    11   6    -0.00  -0.01  -0.00     0.05   0.41   0.11    -0.00   0.00   0.00
    12   6     0.00   0.01   0.00    -0.05  -0.41  -0.11     0.00   0.00   0.00
    13   1    -0.01   0.01   0.00     0.35  -0.16  -0.10     0.00   0.00  -0.00
    14   1     0.01   0.01   0.00    -0.38  -0.11   0.02     0.00  -0.00  -0.00
    15   1     0.00   0.01  -0.00    -0.35   0.16   0.10    -0.00  -0.00  -0.00
    16   1    -0.00   0.00   0.00     0.38   0.11  -0.02     0.00  -0.00  -0.00
                     34                     35                     36
                      A                      A                      A
 Frequencies --   3054.0768              3092.7933              3094.7110
 Red. masses --      1.0830                 1.0572                 1.0522
 Frc consts  --      5.9519                 5.9580                 5.9373
 IR Inten    --      0.0000                 0.0000                 0.0000
  Atom  AN      X      Y      Z        X      Y      Z        X      Y      Z
     1   6    -0.00   0.01   0.00     0.00   0.00  -0.00    -0.00  -0.00   0.00
     2   6     0.02  -0.02  -0.04     0.00  -0.00  -0.00    -0.00   0.00   0.00
     3   1     0.03  -0.02  -0.04    -0.00   0.01   0.01     0.01  -0.01  -0.01
     4   1     0.00  -0.07   0.01     0.00  -0.01   0.00    -0.00   0.02  -0.00
     5   1    -0.28   0.33   0.48    -0.00   0.00   0.00     0.00  -0.00  -0.00
     6   6     0.01   0.02  -0.06    -0.00   0.00   0.00    -0.00   0.00   0.00
     7   6    -0.00  -0.00   0.01     0.00  -0.00  -0.00     0.00  -0.00  -0.00
     8   1    -0.13  -0.24   0.70    -0.00  -0.00   0.00     0.00   0.00  -0.00
     9   1    -0.00   0.08  -0.01     0.00   0.06  -0.01     0.00   0.00  -0.00
    10   1     0.01   0.01  -0.06    -0.01  -0.02   0.06    -0.00  -0.00   0.00
    11   6     0.00  -0.00  -0.00     0.00   0.02   0.01    -0.02  -0.05  -0.01
    12   6    -0.00   0.00   0.00    -0.00  -0.06  -0.02     0.01  -0.01  -0.01
    13   1     0.00   0.00  -0.00    -0.20  -0.09   0.00     0.72   0.34  -0.00
    14   1    -0.00   0.00   0.00     0.16  -0.11  -0.05    -0.41   0.27   0.13
    15   1    -0.00  -0.00  -0.00     0.58   0.26  -0.01     0.10   0.03  -0.00
    16   1     0.00  -0.00  -0.00    -0.56   0.39   0.19    -0.24   0.17   0.08
                     37                     38                     39
                      A                      A                      A
 Frequencies --   3103.6670              3106.4826              3108.8858
 Red. masses --      1.0925                 1.0569                 1.0524
 Frc consts  --      6.2004                 6.0095                 5.9932
 IR Inten    --      0.0000                 0.0000                 0.0000
  Atom  AN      X      Y      Z        X      Y      Z        X      Y      Z
     1   6    -0.00  -0.00   0.01    -0.01  -0.01   0.02    -0.02  -0.04   0.04
     2   6     0.00   0.00  -0.00     0.00   0.00  -0.00     0.00   0.00  -0.00
     3   1     0.04  -0.04  -0.06     0.13  -0.13  -0.20     0.28  -0.30  -0.43
     4   1    -0.00   0.09  -0.00    -0.01   0.24  -0.00    -0.04   0.70  -0.02
     5   1     0.00  -0.00  -0.00     0.00  -0.00  -0.00    -0.01   0.01   0.01
     6   6    -0.00   0.00   0.00    -0.00   0.00   0.00     0.00   0.00  -0.00
     7   6     0.00  -0.01  -0.01     0.01  -0.04  -0.04    -0.00   0.02   0.01
     8   1     0.00   0.00  -0.00     0.00   0.00  -0.00    -0.00  -0.01   0.02
     9   1     0.00   0.23  -0.05     0.01   0.59  -0.13    -0.01  -0.30   0.06
    10   1    -0.03  -0.07   0.21    -0.09  -0.19   0.58     0.03   0.07  -0.21
    11   6     0.05  -0.02  -0.01    -0.02   0.01   0.00     0.00   0.00   0.00
    12   6    -0.06   0.00   0.01     0.02   0.00  -0.00    -0.00  -0.00  -0.00
    13   1    -0.24  -0.14  -0.01     0.10   0.06   0.00    -0.03  -0.02   0.00
    14   1    -0.46   0.34   0.16     0.17  -0.13  -0.06     0.00  -0.00   0.00
    15   1     0.46   0.24   0.01    -0.20  -0.10  -0.00     0.03   0.01  -0.00
    16   1     0.31  -0.25  -0.12    -0.05   0.05   0.02    -0.03   0.02   0.01
                     40                     41                     42
                      A                      A                      A
 Frequencies --   3128.3401              3129.2058              3133.5779
 Red. masses --      1.1096                 1.1148                 1.1085
 Frc consts  --      6.3981                 6.4313                 6.4133
 IR Inten    --      0.0000                 0.0000                 0.0000
  Atom  AN      X      Y      Z        X      Y      Z        X      Y      Z
     1   6     0.02  -0.04  -0.02    -0.01   0.01   0.01     0.03  -0.06  -0.04
     2   6     0.00  -0.00  -0.00    -0.00   0.00   0.00     0.00  -0.01  -0.01
     3   1    -0.18   0.16   0.28     0.06  -0.06  -0.10    -0.31   0.29   0.48
     4   1    -0.01   0.38  -0.03     0.00  -0.09   0.01    -0.01   0.51  -0.04
     5   1    -0.02   0.02   0.03     0.01  -0.01  -0.01    -0.04   0.05   0.07
     6   6    -0.00  -0.00   0.01    -0.00  -0.00   0.00     0.00   0.00  -0.01
     7   6    -0.01  -0.06   0.05    -0.00  -0.01   0.02     0.00   0.03  -0.03
     8   1     0.01   0.03  -0.08     0.00   0.01  -0.02    -0.01  -0.03   0.07
     9   1     0.01   0.59  -0.09     0.00   0.11  -0.02    -0.00  -0.31   0.05
    10   1     0.09   0.14  -0.55     0.03   0.05  -0.17    -0.06  -0.10   0.37
    11   6     0.01  -0.00  -0.00    -0.07   0.01   0.01    -0.02   0.00   0.00
    12   6     0.01  -0.00  -0.00    -0.07   0.00   0.01    -0.02   0.00   0.00
    13   1    -0.04  -0.02  -0.00     0.39   0.21   0.01     0.10   0.05   0.00
    14   1    -0.03   0.03   0.01     0.40  -0.30  -0.14     0.11  -0.08  -0.04
    15   1    -0.05  -0.03   0.00     0.44   0.23   0.00     0.11   0.06   0.00
    16   1    -0.04   0.03   0.01     0.34  -0.26  -0.12     0.09  -0.07  -0.03

 -------------------
 - Thermochemistry -
 -------------------
 Temperature   298.150 Kelvin.  Pressure   1.00000 Atm.
 Atom     1 has atomic number  6 and mass  12.00000
 Atom     2 has atomic number  6 and mass  12.00000
 Atom     3 has atomic number  1 and mass   1.00783
 Atom     4 has atomic number  1 and mass   1.00783
 Atom     5 has atomic number  1 and mass   1.00783
 Atom     6 has atomic number  6 and mass  12.00000
 Atom     7 has atomic number  6 and mass  12.00000
 Atom     8 has atomic number  1 and mass   1.00783
 Atom     9 has atomic number  1 and mass   1.00783
 Atom    10 has atomic number  1 and mass   1.00783
 Atom    11 has atomic number  6 and mass  12.00000
 Atom    12 has atomic number  6 and mass  12.00000
 Atom    13 has atomic number  1 and mass   1.00783
 Atom    14 has atomic number  1 and mass   1.00783
 Atom    15 has atomic number  1 and mass   1.00783
 Atom    16 has atomic number  1 and mass   1.00783
 Molecular mass:    82.07825 amu.
 Principal axes and moments of inertia in atomic units:
                           1         2         3
     Eigenvalues --   438.753671029.491101309.39184
           X            0.99999   0.00206  -0.00491
           Y           -0.00201   0.99995   0.00995
           Z            0.00493  -0.00994   0.99994
 This molecule is an asymmetric top.
 Rotational symmetry number  1.
 Warning -- assumption of classical behavior for rotation
           may cause significant error
 Rotational temperatures (Kelvin)      0.19741     0.08413     0.06615
 Rotational constants (GHZ):           4.11334     1.75304     1.37830
 Zero-point vibrational energy     350328.7 (Joules/Mol)
                                   83.73057 (Kcal/Mol)
 Warning -- explicit consideration of  10 degrees of freedom as
           vibrations may cause significant error
 Vibrational temperatures:     21.04    39.59    40.11    83.78    96.61
          (Kelvin)            131.60   164.78   419.01   664.21   817.24
                             1059.12  1214.87  1260.10  1275.38  1289.51
                             1301.82  1455.04  1466.28  1475.37  1495.78
                             1534.18  1545.54  1707.75  1844.07  1909.28
                             2001.01  2005.35  2038.79  2053.80  2380.35
                             2430.51  2452.28  4379.26  4394.14  4449.84
                             4452.60  4465.48  4469.54  4472.99  4500.98
                             4502.23  4508.52
 
 Zero-point correction=                           0.133433 (Hartree/Particle)
 Thermal correction to Energy=                    0.143536
 Thermal correction to Enthalpy=                  0.144481
 Thermal correction to Gibbs Free Energy=         0.094010
 Sum of electronic and zero-point Energies=            -17.689935
 Sum of electronic and thermal Energies=               -17.679831
 Sum of electronic and thermal Enthalpies=             -17.678887
 Sum of electronic and thermal Free Energies=          -17.729358
 
                     E (Thermal)             CV                S
                      KCal/Mol        Cal/Mol-Kelvin    Cal/Mol-Kelvin
 Total                   90.071             30.331            106.224
 Electronic               0.000              0.000              0.000
 Translational            0.889              2.981             39.129
 Rotational               0.889              2.981             27.872
 Vibrational             88.293             24.370             39.223
 Vibration     1          0.593              1.986              7.256
 Vibration     2          0.593              1.984              6.001
 Vibration     3          0.593              1.984              5.975
 Vibration     4          0.596              1.974              4.516
 Vibration     5          0.598              1.970              4.235
 Vibration     6          0.602              1.955              3.628
 Vibration     7          0.607              1.937              3.191
 Vibration     8          0.687              1.690              1.467
 Vibration     9          0.819              1.335              0.761
 Vibration    10          0.924              1.100              0.508
                       Q            Log10(Q)             Ln(Q)
 Total Bot       0.573287D-43        -43.241628        -99.567528
 Total V=0       0.135928D+19         18.133310         41.753490
 Vib (Bot)       0.712482D-56        -56.147226       -129.283766
 Vib (Bot)    1  0.141664D+02          1.151258          2.650870
 Vib (Bot)    2  0.752517D+01          0.876516          2.018253
 Vib (Bot)    3  0.742836D+01          0.870893          2.005305
 Vib (Bot)    4  0.354705D+01          0.549867          1.266115
 Vib (Bot)    5  0.307258D+01          0.487503          1.122518
 Vib (Bot)    6  0.224722D+01          0.351646          0.809696
 Vib (Bot)    7  0.178656D+01          0.252018          0.580294
 Vib (Bot)    8  0.656205D+00         -0.182961         -0.421282
 Vib (Bot)    9  0.367933D+00         -0.434231         -0.999853
 Vib (Bot)   10  0.271487D+00         -0.566251         -1.303842
 Vib (V=0)       0.168932D+06          5.227712         12.037252
 Vib (V=0)    1  0.146752D+02          1.166583          2.686157
 Vib (V=0)    2  0.804176D+01          0.905351          2.084648
 Vib (V=0)    3  0.794517D+01          0.900103          2.072564
 Vib (V=0)    4  0.408211D+01          0.610885          1.406615
 Vib (V=0)    5  0.361300D+01          0.557868          1.284537
 Vib (V=0)    6  0.280218D+01          0.447496          1.030397
 Vib (V=0)    7  0.235521D+01          0.372030          0.856630
 Vib (V=0)    8  0.132499D+01          0.122212          0.281403
 Vib (V=0)    9  0.112079D+01          0.049523          0.114030
 Vib (V=0)   10  0.106895D+01          0.028958          0.066678
 Electronic      0.100000D+01          0.000000          0.000000
 Translational   0.292278D+08          7.465796         17.190631
 Rotational      0.275297D+06          5.439802         12.525607
 ***** Axes restored to original set *****
 -------------------------------------------------------------------
 Center     Atomic                   Forces (Hartrees/Bohr)
 Number     Number              X              Y              Z
 -------------------------------------------------------------------
      1        6          -0.000000626   -0.000000142   -0.000002626
      2        6           0.000001018    0.000000879    0.000002345
      3        1          -0.000002057   -0.000000515   -0.000002606
      4        1           0.000000880    0.000000604    0.000001434
      5        1          -0.000000127    0.000000301    0.000000552
      6        6           0.000001711    0.000001107    0.000004745
      7        6          -0.000000279   -0.000002162   -0.000002578
      8        1           0.000000662    0.000000939    0.000001010
      9        1          -0.000000613   -0.000001039   -0.000000969
     10        1           0.000000133   -0.000000036   -0.000001294
     11        6           0.000000755   -0.000000319   -0.000000453
     12        6           0.000001369   -0.000002878   -0.000000953
     13        1          -0.000000776    0.000000304    0.000000117
     14        1           0.000001386    0.000003265    0.000001588
     15        1          -0.000002620    0.000000730   -0.000000103
     16        1          -0.000000817   -0.000001039   -0.000000209
 -------------------------------------------------------------------
 Cartesian Forces:  Max     0.000004745 RMS     0.000001520
 Z-matrix is all fixed cartesians, so copy forces.
 Leave Link  716 at Tue May 27 14:37:18 2025, MaxMem=   104857600 cpu:               0.0 elap:               0.1
 (Enter /mlatom/software/Gaussian/g16-avx2/l103.exe)

 GradGradGradGradGradGradGradGradGradGradGradGradGradGradGradGradGradGrad
 Berny optimization.
 Search for a local minimum.
 Step number   1 out of a maximum of    2
 All quantities printed in internal units (Hartrees-Bohrs-Radians)
 Second derivative matrix not updated -- analytic derivatives used.
 ITU=  0
     Eigenvalues ---    0.00002   0.00005   0.00009   0.00027   0.00042
     Eigenvalues ---    0.00078   0.00088   0.00799   0.01247   0.02617
     Eigenvalues ---    0.03189   0.03227   0.04120   0.05243   0.06098
     Eigenvalues ---    0.07081   0.07418   0.07590   0.08588   0.09840
     Eigenvalues ---    0.10663   0.12157   0.12638   0.13798   0.13972
     Eigenvalues ---    0.14525   0.16214   0.18853   0.25407   0.31625
     Eigenvalues ---    0.39046   0.49425   0.50984   0.65654   0.76120
     Eigenvalues ---    0.78939   0.81046   0.86872   0.87160   1.34770
     Eigenvalues ---    1.40831   1.48637
 Angle between quadratic step and forces=  87.80 degrees.
 Linear search not attempted -- first point.
 B after Tr=     0.000000    0.000009    0.000000
         Rot=    1.000000    0.000005    0.000001   -0.000005 Ang=   0.00 deg.
 Variable       Old X    -DE/DX   Delta X   Delta X   Delta X     New X
                                 (Linear)    (Quad)   (Total)
    X1        1.80593  -0.00000   0.00000  -0.00002  -0.00005   1.80589
    Y1        2.81105  -0.00000   0.00000  -0.00005  -0.00004   2.81101
    Z1       -1.18025  -0.00000   0.00000  -0.00034  -0.00036  -1.18062
    X2        2.82741   0.00000   0.00000  -0.00002  -0.00003   2.82738
    Y2        1.55849   0.00000   0.00000   0.00020   0.00024   1.55872
    Z2        0.73934   0.00000   0.00000  -0.00017  -0.00019   0.73915
    X3        0.83698  -0.00000   0.00000  -0.00007  -0.00009   0.83690
    Y3        1.86301  -0.00000   0.00000  -0.00020  -0.00022   1.86279
    Z3       -2.69747  -0.00000   0.00000  -0.00022  -0.00023  -2.69770
    X4        1.87703   0.00000   0.00000   0.00001  -0.00004   1.87700
    Y4        4.84163   0.00000   0.00000  -0.00006  -0.00005   4.84159
    Z4       -1.28865   0.00000   0.00000  -0.00056  -0.00060  -1.28925
    X5        3.72390  -0.00000   0.00000  -0.00001  -0.00003   3.72387
    Y5        2.60339   0.00000   0.00000   0.00040   0.00047   2.60385
    Z5        2.25421   0.00000   0.00000  -0.00032  -0.00034   2.25387
    X6        2.82385   0.00000   0.00000  -0.00002  -0.00001   2.82385
    Y6       -1.17298   0.00000   0.00000   0.00023   0.00028  -1.17270
    Z6        1.05304   0.00000   0.00000   0.00020   0.00021   1.05325
    X7        2.45611  -0.00000   0.00000  -0.00001   0.00002   2.45613
    Y7       -2.85350  -0.00000   0.00000   0.00002   0.00004  -2.85346
    Z7       -0.77432  -0.00000   0.00000   0.00039   0.00042  -0.77390
    X8        3.18893   0.00000   0.00000  -0.00003  -0.00001   3.18892
    Y8       -1.82922   0.00000   0.00000   0.00049   0.00056  -1.82866
    Z8        2.95715   0.00000   0.00000   0.00029   0.00031   2.95746
    X9        2.47996  -0.00000   0.00000  -0.00004   0.00001   2.47997
    Y9       -4.85476  -0.00000   0.00000   0.00005   0.00008  -4.85468
    Z9       -0.40626  -0.00000   0.00000   0.00060   0.00065  -0.40561
   X10        2.14364   0.00000   0.00000   0.00004   0.00006   2.14370
   Y10       -2.29700  -0.00000   0.00000  -0.00020  -0.00020  -2.29720
   Z10       -2.70678  -0.00000   0.00000   0.00031   0.00034  -2.70644
   X11       -4.75087   0.00000   0.00000   0.00039   0.00038  -4.75049
   Y11        1.04278  -0.00000   0.00000  -0.00033  -0.00036   1.04243
   Z11        0.50451  -0.00000   0.00000   0.00072   0.00070   0.50521
   X12       -4.46688   0.00000   0.00000  -0.00032  -0.00031  -4.46718
   Y12       -1.34132  -0.00000   0.00000  -0.00000  -0.00004  -1.34135
   Z12       -0.14692  -0.00000   0.00000  -0.00078  -0.00077  -0.14769
   X13       -6.57433  -0.00000   0.00000   0.00066   0.00064  -6.57369
   Y13        1.95131   0.00000   0.00000   0.00022   0.00018   1.95149
   Z13        0.51469   0.00000   0.00000   0.00117   0.00114   0.51583
   X14       -3.16632   0.00000   0.00000   0.00069   0.00067  -3.16565
   Y14        2.19772   0.00000   0.00000  -0.00114  -0.00114   2.19657
   Z14        1.05544   0.00000   0.00000   0.00157   0.00154   1.05698
   X15       -2.63827  -0.00000   0.00000  -0.00061  -0.00059  -2.63886
   Y15       -2.23895   0.00000   0.00000  -0.00058  -0.00059  -2.23954
   Z15       -0.15264  -0.00000   0.00000  -0.00122  -0.00120  -0.15385
   X16       -6.04494  -0.00000   0.00000  -0.00065  -0.00063  -6.04557
   Y16       -2.50422  -0.00000   0.00000   0.00084   0.00079  -2.50343
   Z16       -0.70203  -0.00000   0.00000  -0.00162  -0.00160  -0.70363
         Item               Value     Threshold  Converged?
 Maximum Force            0.000005     0.000450     YES
 RMS     Force            0.000002     0.000300     YES
 Maximum Displacement     0.001604     0.001800     YES
 RMS     Displacement     0.000566     0.001200     YES
 Predicted change in Energy=-7.949358D-10
 Optimization completed.
    -- Stationary point found.
 GradGradGradGradGradGradGradGradGradGradGradGradGradGradGradGradGradGrad

 Leave Link  103 at Tue May 27 14:37:18 2025, MaxMem=   104857600 cpu:               0.0 elap:               0.3
 (Enter /mlatom/software/Gaussian/g16-avx2/l9999.exe)
 1\1\GINC-B003\Freq\RExternal='/mlatom/software/miniconda3/bin/python /
 mlatom/software/mlatom_xacs/ml\ZDO\C6H10\UNKNOWN\27-May-2025\0\\#p Fre
 q external='/mlatom/software/miniconda3/bin/python /mlatom/software/ml
 atom_xacs/mlatom/interfaces/gaussian_interface.py model_predict_kwargs
 '\\7851eb62-2bb3-4c30-ba17-677380bbc5d3\\0,1\C,0.9556589928,1.48754143
 ,-0.6245637148\C,1.4962030838,0.8247158694,0.3912395324\H,0.4429130413
 ,0.9858609062,-1.4274392312\H,0.9932840015,2.5620821022,-0.6819248026\
 H,1.9706053835,1.3776524909,1.1928774274\C,1.4943180336,-0.6207162072,
 0.5572441914\C,1.2997194291,-1.5100086098,-0.4097519791\H,1.6875104432
 ,-0.9679822384,1.5648547853\H,1.3123402413,-2.5690284596,-0.2149841518
 \H,1.1343670468,-1.2155197575,-1.4323671732\C,-2.5140523163,0.55181671
 ,0.2669740508\C,-2.3637686173,-0.7097934043,-0.0777452065\H,-3.4789851
 587,1.0325898315,0.2723597958\H,-1.6755469602,1.1629827805,0.558513859
 9\H,-1.3961127137,-1.1847988064,-0.0807741246\H,-3.1988469593,-1.32517
 35787,-0.3714976299\\Version=ES64L-G16RevA.03\HF=-17.8233677\RMSD=0.00
 0e+00\RMSF=1.520e-06\ZeroPoint=0.1334332\Thermal=0.1435365\Dipole=0.09
 40385,0.0127079,0.0177911\PG=C01 [X(C6H10)]\NImag=0\\0.25788122,-0.026
 70920,0.63240390,0.28448782,-0.10933621,0.59248809,-0.12237685,0.09181
 410,-0.16524441,0.26185760,0.08450829,-0.18454213,0.15841268,-0.029031
 37,0.59393490,-0.16546891,0.17528095,-0.33753264,0.26967822,-0.0996847
 9,0.61652861,-0.09512050,-0.06057794,-0.09829541,-0.00731555,-0.007631
 34,-0.01271575,0.09566029,-0.06138975,-0.10562689,-0.09358377,0.005938
 48,0.00842807,0.00873842,0.06705922,0.11514521,-0.09713902,-0.09288039
 ,-0.18499212,-0.01409638,-0.00980783,-0.02283284,0.11704919,0.10288588
 ,0.20693714,-0.03430643,-0.01340882,-0.00531615,0.00031195,0.01391389,
 -0.00089212,0.00121436,-0.01360723,-0.00151075,0.02904285,-0.01201167,
 -0.30861727,0.01078920,0.00059685,-0.02041495,0.00305025,-0.00141744,-
 0.01598726,-0.00055453,0.01193029,0.34386701,-0.00541905,0.00843489,-0
 .04070969,-0.00063174,0.02501384,-0.00348068,-0.00278565,-0.02129643,0
 .00049632,0.01217267,-0.01625875,0.04390342,-0.00786964,-0.00483404,-0
 .01482700,-0.08447735,-0.05918980,-0.08065367,0.00895363,0.00081630,-0
 .00755466,-0.00391553,0.00002924,0.00295351,0.08471311,0.00616999,0.00
 638062,0.01033218,-0.05799374,-0.10933453,-0.09478116,0.00092680,-0.00
 024885,0.00283531,0.00097907,0.00125628,0.00090764,0.06270060,0.128099
 73,-0.01447329,-0.01114812,-0.02383955,-0.08280582,-0.09294530,-0.1782
 7397,-0.00692202,0.00296839,-0.00002475,0.00262650,-0.00085241,-0.0005
 5705,0.10240566,0.10198914,0.20019880,0.00069882,0.01206190,0.00021427
 ,-0.05665234,0.00115769,-0.00839071,-0.00385922,0.00043861,0.00304217,
 0.00846136,0.00077723,-0.00688848,0.00164661,-0.01272555,-0.00093668,0
 .14035165,0.01332213,-0.03720186,0.03206467,-0.01352436,-0.22609310,-0
 .00089742,0.00081467,0.00048812,-0.00193728,-0.00032773,-0.00002195,0.
 00201352,0.00091851,-0.01991155,-0.00216585,0.03344347,0.64379102,0.00
 058757,0.02216632,0.00058300,-0.00578114,0.03938578,-0.07733667,0.0030
 5583,-0.00002014,-0.00113338,-0.00745457,0.00308209,0.00055385,-0.0014
 4508,-0.02102902,-0.00034076,0.11858730,0.12228872,0.68863769,-0.00067
 625,0.00243642,-0.00262612,0.00123367,-0.00728963,0.00302176,0.0000190
 9,0.00040202,0.00027564,0.00002266,0.00012241,0.00017111,0.00123039,-0
 .00056913,-0.00064224,-0.04348729,-0.03921409,-0.05688883,0.11174828,-
 0.00260890,0.00304612,-0.00807722,-0.00184227,-0.04775472,-0.01478156,
 0.00034030,-0.00062809,-0.00040968,-0.00080631,0.00038968,0.00030812,-
 0.00101805,-0.00551803,0.00080043,-0.04541125,-0.27230288,-0.22621306,
 0.03333472,0.68293929,-0.00246786,0.00570088,-0.00652783,0.00283758,-0
 .02304195,0.01069102,-0.00055307,0.00106248,0.00030400,0.00029722,0.00
 023670,-0.00035007,-0.00105220,0.00138437,0.00151938,-0.05785543,-0.20
 879879,-0.32788487,0.10536092,0.11911961,0.68560684,0.00232784,-0.0005
 7412,0.00064167,0.00147602,0.00312778,-0.00298254,0.00005269,-0.000091
 25,0.00014111,-0.00017586,0.00010220,0.00009236,-0.00007597,-0.0002307
 0,0.00080463,-0.04549999,0.01059484,-0.04429898,-0.00016846,0.00210803
 ,-0.00492898,0.03483398,-0.00073733,-0.00551704,0.00057938,0.00509022,
 -0.01368311,0.02676049,-0.00030096,-0.00002808,-0.00026394,0.00138053,
 -0.00086672,0.00056988,0.00044007,0.00020875,0.00107856,0.01314239,-0.
 06962320,0.07680408,-0.00364297,0.00475645,-0.01957501,-0.01447354,0.0
 8524213,0.00020102,0.00131921,0.00038467,-0.00216159,0.00367118,-0.006
 25551,0.00036790,-0.00024593,0.00027079,-0.00026481,0.00017533,-0.0001
 1446,0.00009534,-0.00094878,0.00100953,-0.04270831,0.07617973,-0.25736
 508,-0.00579708,0.00385156,-0.02983696,0.05212172,-0.08127517,0.293216
 28,-0.00027269,-0.00091228,-0.00008875,0.01234713,-0.00109771,-0.00204
 675,0.00051592,-0.00018835,-0.00036681,-0.00108864,0.00000785,0.000825
 04,-0.00010938,0.00076781,0.00008012,-0.00014799,-0.00427150,-0.000575
 39,-0.03075709,0.00429432,-0.00312116,-0.00527840,-0.00005539,0.001316
 99,0.02217966,-0.00012534,0.00030665,-0.00033266,-0.00105851,-0.001141
 64,-0.00344900,-0.00013667,0.00024554,-0.00018613,-0.00005955,0.000052
 72,0.00003820,0.00001194,-0.00109485,-0.00002560,-0.00001193,-0.026156
 71,0.00191003,0.00368205,-0.29839060,0.05111837,0.00032448,0.00115225,
 0.00065030,-0.00313330,0.33511401,-0.00015568,0.00021344,0.00005703,-0
 .00276330,-0.00194918,-0.00221403,0.00019306,-0.00021262,0.00018611,0.
 00021608,0.00004197,0.00010551,-0.00004252,-0.00116492,0.00004556,0.00
 018413,-0.02335358,0.00266080,-0.00312724,0.05372109,-0.05414640,0.001
 08096,-0.00132192,0.00093032,0.00563515,-0.05279091,0.05941998,0.00025
 690,0.00071089,0.00050748,-0.00584748,0.00151172,0.00055850,0.00008163
 ,0.00068854,0.00011530,0.00045828,-0.00005702,-0.00045090,-0.00011323,
 -0.00007756,-0.00005486,-0.00050486,-0.00126971,-0.00524802,-0.0387659
 5,0.01128326,-0.03892508,0.01247412,-0.00083057,-0.00317962,0.00270637
 ,0.00036736,-0.00119730,0.02949189,-0.00036836,-0.00075997,-0.00086897
 ,0.00001155,0.00076508,-0.00020463,0.00094491,-0.00162536,0.00032699,0
 .00003541,0.00034313,0.00022982,0.00011125,0.00011634,0.00030732,-0.00
 280544,0.00708975,-0.01835807,0.01083858,-0.06671681,0.07283050,-0.000
 88216,-0.00165299,-0.00338681,0.00444889,-0.00998575,0.02678235,-0.012
 30702,0.07241851,-0.00019297,0.00022979,0.00021386,0.00083818,0.001023
 72,0.00058982,0.00044735,-0.00030871,0.00099141,0.00010615,0.00021787,
 0.00015083,0.00013479,0.00047153,0.00027388,-0.00517470,0.00463399,-0.
 02841675,-0.03965626,0.07168517,-0.27945715,-0.00267302,-0.00335850,-0
 .00215059,-0.00165463,0.00305246,-0.00706483,0.04767731,-0.07770903,0.
 31505120,-0.00013708,-0.00010321,-0.00000812,-0.00002571,0.00007757,0.
 00003458,-0.00015582,0.00006160,0.00007309,-0.00010401,-0.00009851,0.0
 0005627,-0.00008238,-0.00003696,-0.00000054,-0.00009558,0.00006122,-0.
 00003392,0.00000374,-0.00005494,0.00002011,-0.00004616,-0.00001212,0.0
 0003863,0.00000195,-0.00016985,0.00002693,-0.00003506,0.00005206,-0.00
 010820,0.56143994,0.00008209,0.00001068,0.00013124,0.00002752,0.000080
 39,-0.00000383,0.00007979,0.00004056,-0.00009165,0.00000498,-0.0000687
 4,-0.00002982,-0.00003434,0.00000093,-0.00010042,-0.00006103,-0.000000
 97,-0.00002709,-0.00000738,-0.00005008,0.00007028,0.00000344,0.0000247
 4,-0.00002960,-0.00000269,0.00001700,-0.00003100,0.00005688,-0.0000224
 4,-0.00001067,-0.04903784,0.79993662,0.00023945,-0.00013331,-0.0002375
 0,0.00000491,0.00012085,-0.00012717,0.00009843,0.00015042,0.00020997,-
 0.00003275,-0.00012186,0.00003654,0.00004122,-0.00000384,0.00009650,-0
 .00004319,0.00011206,-0.00013313,-0.00000652,-0.00003104,-0.00002717,0
 .00003857,-0.00006905,0.00009618,-0.00000028,-0.00006184,0.00000871,-0
 .00000705,0.00002787,0.00006054,0.04951622,0.19628719,0.16178322,0.000
 04120,0.00006325,-0.00006068,-0.00011965,-0.00008471,-0.00011794,-0.00
 007617,-0.00018098,0.00008418,0.00002570,0.00019159,0.00000456,0.00004
 016,0.00008305,0.00009560,-0.00005919,-0.00000371,0.00009251,-0.000315
 48,0.00002253,-0.00013382,-0.00007420,0.00000642,0.00000093,-0.0000984
 6,0.00012305,0.00002090,-0.00006307,-0.00001170,0.00007418,-0.08898374
 ,0.05759465,0.00852060,0.56175004,-0.00004895,-0.00003358,-0.00002294,
 0.00008588,0.00003787,0.00010222,-0.00010239,0.00009229,-0.00003108,-0
 .00001684,-0.00003625,-0.00001413,-0.00002506,-0.00003317,0.00000279,-
 0.00007170,0.00003696,0.00004350,-0.00000700,-0.00004702,0.00007329,-0
 .00003972,0.00000227,-0.00003873,-0.00005242,-0.00000763,-0.00000578,-
 0.00003647,0.00003192,-0.00011727,0.05759165,-0.54567346,-0.14145600,-
 0.04933959,0.79971408,-0.00003505,-0.00016739,-0.00023579,-0.00002068,
 0.00007541,-0.00004299,-0.00002781,-0.00004070,0.00018930,0.00003472,0
 .00007206,0.00007028,0.00004335,0.00001027,0.00011928,-0.00006862,0.00
 001945,-0.00012834,0.00007637,0.00010973,-0.00022202,0.00004240,-0.000
 00590,0.00019502,0.00000507,-0.00006026,0.00001415,-0.00007490,-0.0000
 4696,0.00025312,0.00848858,-0.14146461,-0.06966601,0.04987902,0.196244
 21,0.16191447,-0.00017442,0.00009413,0.00005707,0.00005056,-0.00000369
 ,0.00013960,-0.00007199,-0.00000433,-0.00015805,-0.00002012,0.00000551
 ,-0.00002620,0.00002344,-0.00000493,0.00001630,0.00002796,-0.00002469,
 0.00012472,-0.00015243,-0.00005138,-0.00003096,0.00002595,-0.00002300,
 0.00003375,0.00002684,0.00000394,-0.00000904,0.00001756,-0.00001233,-0
 .00005844,-0.25817153,0.10148379,-0.00167793,-0.00606540,0.00613319,0.
 00090944,0.28387583,-0.00006496,0.00002720,-0.00002167,-0.00003042,-0.
 00009832,-0.00002419,-0.00000834,-0.00008485,0.00000899,-0.00001364,0.
 00009960,0.00000750,0.00000963,0.00004306,0.00005880,0.00005372,-0.000
 06130,-0.00003606,0.00014404,0.00006125,-0.00000738,-0.00001611,-0.000
 00583,0.00001428,-0.00003863,0.00006452,-0.00000552,-0.00002990,-0.000
 02871,0.00006208,0.09931988,-0.09136544,-0.00282475,0.02928355,-0.0177
 4076,-0.00110772,-0.11693868,0.10651800,-0.00002752,0.00006884,0.00005
 961,0.00001787,-0.00004276,0.00003995,-0.00003266,-0.00002458,-0.00007
 412,-0.00000865,0.00002223,-0.00001413,-0.00001455,0.00001083,-0.00001
 460,0.00002593,-0.00005202,0.00003693,0.00001867,0.00000016,0.00003050
 ,-0.00001145,0.00000808,-0.00003297,-0.00001277,0.00003224,-0.00000354
 ,-0.00000129,0.,-0.00003474,-0.00231379,-0.00249184,-0.03519044,0.0076
 3237,-0.00434194,-0.00006350,0.00226787,0.00789937,0.02588442,0.000032
 97,-0.00018753,0.00034023,-0.00051541,0.00015037,-0.00025600,0.0000017
 0,0.00005646,0.00020671,0.00006344,-0.00015569,-0.00000761,0.00000191,
 -0.00004777,-0.00013908,0.00001848,0.00026062,-0.00007167,-0.00009770,
 -0.00003913,0.00003664,0.00003213,-0.00000758,-0.00002566,0.00000171,-
 0.00004382,-0.00001929,0.00004238,0.00000093,0.00000731,-0.20912632,-0
 .11456695,-0.05732880,0.00139332,-0.00158999,-0.00025801,-0.02290693,-
 0.01359542,-0.00749630,0.22756229,-0.00004238,0.00031822,0.00008771,0.
 00004669,0.00013931,0.00007529,0.00000216,-0.00003177,-0.00021688,-0.0
 0010977,-0.00020197,0.00001452,-0.00001478,0.00000300,-0.00005349,0.00
 004463,-0.00016744,0.00018553,-0.00010452,-0.00012720,-0.00006950,0.00
 001164,-0.00003665,0.00005986,-0.00002662,0.00006513,-0.00001366,0.000
 00087,-0.00001902,-0.00005092,-0.11195588,-0.12292257,-0.04098676,-0.0
 2475985,-0.02234321,-0.00988956,0.00923078,0.00608910,0.00220955,0.127
 74684,0.14288457,-0.00016813,0.00014257,0.00016558,0.00012728,-0.00003
 681,0.00020496,0.00012071,-0.00018485,-0.00039312,0.00005090,0.0001125
 8,-0.00001983,-0.00006360,-0.00001381,-0.00012593,0.00001456,-0.000111
 63,0.00011515,0.00003709,-0.00000699,-0.00002395,-0.00002209,0.0000739
 0,-0.00005442,-0.00000314,0.00005042,-0.00002341,-0.00000495,-0.000041
 68,-0.00005786,-0.05638765,-0.04113974,-0.05395566,-0.00698535,-0.0067
 6579,-0.00287568,-0.00101423,-0.00099896,0.00243330,0.06501846,0.05200
 469,0.04769184,-0.00018992,0.00006436,0.00016684,-0.00001321,-0.000230
 72,-0.00002174,0.00012928,-0.00004403,-0.00000965,0.00000438,0.0000277
 1,-0.00003331,0.00002057,0.00007450,-0.00004610,-0.00085374,-0.0008032
 3,-0.00081190,0.00037588,0.00053770,0.00054645,0.00007916,0.00003683,-
 0.00010838,0.00000241,0.00027879,-0.00002620,-0.00017228,-0.00004590,0
 .00037251,-0.00581710,0.00598707,0.00092723,-0.26016621,0.10148830,-0.
 00204862,0.00201210,0.00115241,-0.00135122,0.00150284,-0.00123450,0.00
 065805,0.28567822,0.00013906,-0.00022134,-0.00014876,-0.00010714,-0.00
 027830,-0.00020429,-0.00000071,-0.00012070,0.00032951,0.00005311,0.000
 14076,0.00006762,0.00003237,0.00001462,0.00006945,-0.00005115,0.000225
 32,-0.00018407,-0.00016101,0.00030570,-0.00008151,0.00000451,0.0000195
 5,0.00001732,0.00023117,-0.00031854,0.00008672,-0.00002212,0.00006694,
 0.00011950,0.02914094,-0.01763377,-0.00109312,0.09870253,-0.09044753,-
 0.00242549,0.00135525,-0.00407302,-0.00510816,0.00075261,0.00047611,0.
 00209057,-0.11612832,0.10579458,0.00006609,0.00003892,0.00005992,-0.00
 000580,-0.00016432,-0.00000725,0.00003299,0.00014767,-0.00005351,-0.00
 003556,-0.00002829,-0.00005532,-0.00001686,-0.00000365,-0.00005906,-0.
 00000965,0.00003183,0.00009732,-0.00018776,-0.00005701,0.00029612,-0.0
 0004576,-0.00001505,-0.00025959,0.00000673,0.00002480,0.00002645,0.000
 28327,0.00010861,-0.00036329,0.00760484,-0.00434160,-0.00010541,-0.002
 84069,-0.00203417,-0.03554409,-0.00129283,-0.00510713,0.01252450,0.001
 27644,0.00177533,-0.00559637,0.00275876,0.00748062,0.02660190,-0.00011
 517,0.00006210,0.00005128,0.00006660,0.00011165,0.00011345,-0.00002934
 ,0.00004470,-0.00015207,0.00000560,-0.00005056,-0.00003258,0.00001366,
 -0.00001547,-0.00000817,-0.00004468,0.00002354,0.00016156,-0.00021308,
 -0.00008864,-0.00003036,0.00001717,-0.00001299,0.00006918,-0.00002934,
 -0.00005265,-0.00001663,-0.00002720,-0.00001068,-0.00013953,0.00133486
 ,-0.00160997,-0.00029011,-0.20722885,-0.11396888,-0.05694527,0.0015025
 9,0.00077287,0.00130747,0.00199318,0.00116468,-0.00137791,-0.02259237,
 -0.01394108,-0.00759419,0.22534637,-0.00011471,0.00002669,-0.00000486,
 -0.00002348,-0.00004482,0.00002325,0.00000793,-0.00005795,-0.00000731,
 0.00005260,0.00006592,-0.00000642,0.00004614,0.00001764,0.00001632,0.0
 0001842,-0.00009023,0.00000146,0.00003550,0.00003694,-0.00002236,0.000
 03068,0.00000748,-0.00001373,0.00002883,0.00007791,0.00000353,0.000010
 86,-0.00002061,0.00005898,-0.02483561,-0.02237345,-0.00991680,-0.11169
 008,-0.12355280,-0.04132254,-0.00124356,0.00055548,0.00180999,0.001266
 04,-0.00412561,-0.00517448,0.00883904,0.00604959,0.00214345,0.12757139
 ,0.14342783,-0.00003444,0.00006962,0.00006336,0.00000683,-0.00003053,0
 .00004939,-0.00003309,-0.00003555,-0.00008121,0.00001111,0.00001555,-0
 .00001553,-0.00000371,0.00000391,-0.00002726,0.00000742,-0.00002739,0.
 00005423,-0.00002952,-0.00001930,0.00002855,-0.00000059,0.00001018,-0.
 00003322,0.00000057,0.00002958,-0.00000242,0.00000212,0.00000271,-0.00
 003945,-0.00700701,-0.00672683,-0.00284918,-0.05626638,-0.04163818,-0.
 05397721,0.00071891,0.00208236,-0.00558117,-0.00128336,-0.00513172,0.0
 1251537,-0.00097273,-0.00101591,0.00243770,0.06488387,0.05241151,0.047
 45805\\0.00000063,0.00000014,0.00000263,-0.00000102,-0.00000088,-0.000
 00235,0.00000206,0.00000051,0.00000261,-0.00000088,-0.00000060,-0.0000
 0143,0.00000013,-0.00000030,-0.00000055,-0.00000171,-0.00000111,-0.000
 00474,0.00000028,0.00000216,0.00000258,-0.00000066,-0.00000094,-0.0000
 0101,0.00000061,0.00000104,0.00000097,-0.00000013,0.00000004,0.0000012
 9,-0.00000075,0.00000032,0.00000045,-0.00000137,0.00000288,0.00000095,
 0.00000078,-0.00000030,-0.00000012,-0.00000139,-0.00000327,-0.00000159
 ,0.00000262,-0.00000073,0.00000010,0.00000082,0.00000104,0.00000021\\\
 @


 A COMPUTER IS LIKE A HORSE, IT WILL SENSE WEAKNESS.
     -- GREG WETTSTEIN
 Job cpu time:       0 days  0 hours  0 minutes  0.5 seconds.
 Elapsed time:       0 days  0 hours  0 minutes  3.3 seconds.
 File lengths (MBytes):  RWF=     22 Int=      0 D2E=      0 Chk=      2 Scr=      2
 Normal termination of Gaussian 16 at Tue May 27 14:37:18 2025.
