 Entering Gaussian System, Link 0=/mlatom/software/Gaussian/g16-avx2/g16
 Input=gaussian.com
 Output=gaussian.log
 Initial command:
 /mlatom/software/Gaussian/g16-avx2/l1.exe "/mlatom/home/huangyh/projects/delta_learning/paper/revision1/Starting_from_ub3lyp_d4/da/b3lyp/AL/ts/Gau-125724.inp" -scrdir="/mlatom/home/huangyh/projects/delta_learning/paper/revision1/Starting_from_ub3lyp_d4/da/b3lyp/AL/ts/"
 Entering Link 1 = /mlatom/software/Gaussian/g16-avx2/l1.exe PID=    125725.
  
 Copyright (c) 1988,1990,1992,1993,1995,1998,2003,2009,2016,
            Gaussian, Inc.  All Rights Reserved.
  
 This is part of the Gaussian(R) 16 program.  It is based on
 the Gaussian(R) 09 system (copyright 2009, Gaussian, Inc.),
 the Gaussian(R) 03 system (copyright 2003, Gaussian, Inc.),
 the Gaussian(R) 98 system (copyright 1998, Gaussian, Inc.),
 the Gaussian(R) 94 system (copyright 1995, Gaussian, Inc.),
 the Gaussian 92(TM) system (copyright 1992, Gaussian, Inc.),
 the Gaussian 90(TM) system (copyright 1990, Gaussian, Inc.),
 the Gaussian 88(TM) system (copyright 1988, Gaussian, Inc.),
 the Gaussian 86(TM) system (copyright 1986, Carnegie Mellon
 University), and the Gaussian 82(TM) system (copyright 1983,
 Carnegie Mellon University). Gaussian is a federally registered
 trademark of Gaussian, Inc.
  
 This software contains proprietary and confidential information,
 including trade secrets, belonging to Gaussian, Inc.
  
 This software is provided under written license and may be
 used, copied, transmitted, or stored only in accord with that
 written license.
  
 The following legend is applicable only to US Government
 contracts under FAR:
  
                    RESTRICTED RIGHTS LEGEND
  
 Use, reproduction and disclosure by the US Government is
 subject to restrictions as set forth in subparagraphs (a)
 and (c) of the Commercial Computer Software - Restricted
 Rights clause in FAR 52.227-19.
  
 Gaussian, Inc.
 340 Quinnipiac St., Bldg. 40, Wallingford CT 06492
  
  
 ---------------------------------------------------------------
 Warning -- This program may not be used in any manner that
 competes with the business of Gaussian, Inc. or will provide
 assistance to any competitor of Gaussian, Inc.  The licensee
 of this program is prohibited from giving any competitor of
 Gaussian, Inc. access to this program.  By using this program,
 the user acknowledges that Gaussian, Inc. is engaged in the
 business of creating and licensing software in the field of
 computational chemistry and represents and warrants to the
 licensee that it is not a competitor of Gaussian, Inc. and that
 it will not use this program in any manner prohibited above.
 ---------------------------------------------------------------
  

 Cite this work as:
 Gaussian 16, Revision A.03,
 M. J. Frisch, G. W. Trucks, H. B. Schlegel, G. E. Scuseria, 
 M. A. Robb, J. R. Cheeseman, G. Scalmani, V. Barone, 
 G. A. Petersson, H. Nakatsuji, X. Li, M. Caricato, A. V. Marenich, 
 J. Bloino, B. G. Janesko, R. Gomperts, B. Mennucci, H. P. Hratchian, 
 J. V. Ortiz, A. F. Izmaylov, J. L. Sonnenberg, D. Williams-Young, 
 F. Ding, F. Lipparini, F. Egidi, J. Goings, B. Peng, A. Petrone, 
 T. Henderson, D. Ranasinghe, V. G. Zakrzewski, J. Gao, N. Rega, 
 G. Zheng, W. Liang, M. Hada, M. Ehara, K. Toyota, R. Fukuda, 
 J. Hasegawa, M. Ishida, T. Nakajima, Y. Honda, O. Kitao, H. Nakai, 
 T. Vreven, K. Throssell, J. A. Montgomery, Jr., J. E. Peralta, 
 F. Ogliaro, M. J. Bearpark, J. J. Heyd, E. N. Brothers, K. N. Kudin, 
 V. N. Staroverov, T. A. Keith, R. Kobayashi, J. Normand, 
 K. Raghavachari, A. P. Rendell, J. C. Burant, S. S. Iyengar, 
 J. Tomasi, M. Cossi, J. M. Millam, M. Klene, C. Adamo, R. Cammi, 
 J. W. Ochterski, R. L. Martin, K. Morokuma, O. Farkas, 
 J. B. Foresman, and D. J. Fox, Gaussian, Inc., Wallingford CT, 2016.
 
 ******************************************
 Gaussian 16:  ES64L-G16RevA.03 25-Dec-2016
                26-May-2025 
 ******************************************
 %nproc=1
 Will use up to    1 processors via shared memory.
 ----------------------------------------------------------------------
 #p Freq external='/mlatom/software/miniconda3/bin/python /mlatom/softw
 are/mlatom_xacs/mlatom/interfaces/gaussian_interface.py model_predict_
 kwargs'
 ----------------------------------------------------------------------
 1/10=4,18=10,30=1,38=1/1,3;
 2/12=2,17=6,18=5,40=1/2;
 3/11=9,25=1,30=1,41=9900000,43=2,71=2,140=1/1;
 4/20=17,22=2,24=3,113=1,114=1/2;
 6/7=2,8=2,9=2,10=2/1;
 7/8=1,25=1,44=-1/16;
 1/10=4,18=10,30=1/3;
 99//99;
 Leave Link    1 at Mon May 26 08:21:10 2025, MaxMem=           0 cpu:               0.0 elap:               0.3
 (Enter /mlatom/software/Gaussian/g16-avx2/l101.exe)
 ------------------------------------
 e3c394ac-d43d-4b20-ab1f-90bc8eaff70c
 ------------------------------------
 Symbolic Z-matrix:
 Charge =  0 Multiplicity = 1
 C                     0.44221  -1.43515   0.48781 
 C                     1.3239   -0.70407  -0.28621 
 H                     0.11151  -1.06092   1.44924 
 H                     0.38429  -2.51485   0.37888 
 H                     1.87728  -1.21422  -1.07418 
 C                     1.32397   0.70395  -0.28621 
 C                     0.44238   1.43513   0.4878 
 H                     1.87739   1.21402  -1.0742 
 H                     0.38456   2.51483   0.37884 
 H                     0.11165   1.06096   1.44925 
 C                    -1.57303  -0.69312  -0.2291 
 C                    -1.57298   0.69324  -0.22911 
 H                    -2.06233  -1.23776   0.57427 
 H                    -1.47047  -1.23526  -1.16311 
 H                    -1.47036   1.23538  -1.16311 
 H                    -2.06224   1.23793   0.57426 
 
 ITRead=  0  0  0  0  0  0  0  0  0  0  0  0  0  0  0  0
 MicOpt= -1 -1 -1 -1 -1 -1 -1 -1 -1 -1 -1 -1 -1 -1 -1 -1
 NAtoms=     16 NQM=       16 NQMF=       0 NMMI=      0 NMMIF=      0
                NMic=       0 NMicF=      0.
                    Isotopes and Nuclear Properties:
 (Nuclear quadrupole moments (NQMom) in fm**2, nuclear magnetic moments (NMagM)
  in nuclear magnetons)

  Atom         1           2           3           4           5           6           7           8           9          10
 IAtWgt=          12          12           1           1           1          12          12           1           1           1
 AtmWgt=  12.0000000  12.0000000   1.0078250   1.0078250   1.0078250  12.0000000  12.0000000   1.0078250   1.0078250   1.0078250
 NucSpn=           0           0           1           1           1           0           0           1           1           1
 AtZEff=  -0.0000000  -0.0000000  -0.0000000  -0.0000000  -0.0000000  -0.0000000  -0.0000000  -0.0000000  -0.0000000  -0.0000000
 NQMom=    0.0000000   0.0000000   0.0000000   0.0000000   0.0000000   0.0000000   0.0000000   0.0000000   0.0000000   0.0000000
 NMagM=    0.0000000   0.0000000   2.7928460   2.7928460   2.7928460   0.0000000   0.0000000   2.7928460   2.7928460   2.7928460
 AtZNuc=   6.0000000   6.0000000   1.0000000   1.0000000   1.0000000   6.0000000   6.0000000   1.0000000   1.0000000   1.0000000

  Atom        11          12          13          14          15          16
 IAtWgt=          12          12           1           1           1           1
 AtmWgt=  12.0000000  12.0000000   1.0078250   1.0078250   1.0078250   1.0078250
 NucSpn=           0           0           1           1           1           1
 AtZEff=  -0.0000000  -0.0000000  -0.0000000  -0.0000000  -0.0000000  -0.0000000
 NQMom=    0.0000000   0.0000000   0.0000000   0.0000000   0.0000000   0.0000000
 NMagM=    0.0000000   0.0000000   2.7928460   2.7928460   2.7928460   2.7928460
 AtZNuc=   6.0000000   6.0000000   1.0000000   1.0000000   1.0000000   1.0000000
 Leave Link  101 at Mon May 26 08:21:10 2025, MaxMem=   104857600 cpu:               0.1 elap:               0.4
 (Enter /mlatom/software/Gaussian/g16-avx2/l103.exe)

 GradGradGradGradGradGradGradGradGradGradGradGradGradGradGradGradGradGrad
 Berny optimization.
 Initialization pass.
 Trust Radius=3.00D-01 FncErr=1.00D-07 GrdErr=1.00D-07 EigMax=2.50D+02 EigMin=1.00D-04
 Number of steps in this run=      2 maximum allowed number of steps=      2.
 GradGradGradGradGradGradGradGradGradGradGradGradGradGradGradGradGradGrad

 Leave Link  103 at Mon May 26 08:21:11 2025, MaxMem=   104857600 cpu:               0.0 elap:               0.1
 (Enter /mlatom/software/Gaussian/g16-avx2/l202.exe)
                          Input orientation:                          
 ---------------------------------------------------------------------
 Center     Atomic      Atomic             Coordinates (Angstroms)
 Number     Number       Type             X           Y           Z
 ---------------------------------------------------------------------
      1          6           0        0.442215   -1.435149    0.487809
      2          6           0        1.323899   -0.704074   -0.286206
      3          1           0        0.111514   -1.060920    1.449235
      4          1           0        0.384285   -2.514851    0.378875
      5          1           0        1.877275   -1.214216   -1.074180
      6          6           0        1.323971    0.703947   -0.286214
      7          6           0        0.442379    1.435128    0.487802
      8          1           0        1.877395    1.214020   -1.074200
      9          1           0        0.384562    2.514834    0.378844
     10          1           0        0.111652    1.060964    1.449245
     11          6           0       -1.573031   -0.693116   -0.229105
     12          6           0       -1.572979    0.693244   -0.229107
     13          1           0       -2.062333   -1.237756    0.574267
     14          1           0       -1.470466   -1.235260   -1.163110
     15          1           0       -1.470363    1.235376   -1.163113
     16          1           0       -2.062238    1.237927    0.574260
 ---------------------------------------------------------------------
                    Distance matrix (angstroms):
                    1          2          3          4          5
     1  C    0.000000
     2  C    1.382366   0.000000
     3  H    1.083398   2.146851   0.000000
     4  H    1.086729   2.145721   1.825922   0.000000
     5  H    2.132608   1.089667   3.083672   2.456021   0.000000
     6  C    2.439741   1.408020   2.756191   3.418481   2.146249
     7  C    2.870277   2.439744   2.695196   3.951908   3.393780
     8  H    3.393775   2.146247   3.829022   4.271450   2.428236
     9  H    3.951906   3.418481   3.742500   5.029685   4.271450
    10  H    2.695220   2.756210   2.121884   3.742523   3.829040
    11  C    2.264022   2.897514   2.406200   2.742161   3.590308
    12  C    3.017455   3.216778   2.954901   3.806889   4.031973
    13  H    2.513802   3.534373   2.349990   2.766783   4.270649
    14  H    2.534529   2.976507   3.058987   2.730416   3.348989
    15  H    3.676303   3.512596   3.820952   4.458885   4.149108
    16  H    3.664027   3.997210   3.282602   4.484082   4.924442
                    6          7          8          9         10
     6  C    0.000000
     7  C    1.382365   0.000000
     8  H    1.089667   2.132606   0.000000
     9  H    2.145717   1.086729   2.456013   0.000000
    10  H    2.146858   1.083398   3.083674   1.825918   0.000000
    11  C    3.216779   3.017492   4.031972   3.806931   2.954965
    12  C    2.897533   2.264071   3.590330   2.742218   2.406256
    13  H    3.997210   3.664064   4.924439   4.484130   3.282669
    14  H    3.512598   3.676337   4.149102   4.458918   3.821013
    15  H    2.976520   2.534562   3.349007   2.730456   3.059021
    16  H    3.534397   2.513855   4.270679   2.766860   2.350046
                   11         12         13         14         15
    11  C    0.000000
    12  C    1.386361   0.000000
    13  H    1.086947   2.147939   0.000000
    14  H    1.084806   2.145227   1.835426   0.000000
    15  H    2.145226   1.084806   3.079822   2.470636   0.000000
    16  H    2.147940   1.086946   2.475683   3.079821   1.835426
                   16
    16  H    0.000000
 Stoichiometry    C6H10
 Framework group  C1[X(C6H10)]
 Deg. of freedom    42
 Full point group                 C1      NOp   1
 Largest Abelian subgroup         C1      NOp   1
 Largest concise Abelian subgroup C1      NOp   1
                         Standard orientation:                         
 ---------------------------------------------------------------------
 Center     Atomic      Atomic             Coordinates (Angstroms)
 Number     Number       Type             X           Y           Z
 ---------------------------------------------------------------------
      1          6           0       -0.442215    1.435149    0.487809
      2          6           0       -1.323899    0.704074   -0.286206
      3          1           0       -0.111514    1.060920    1.449235
      4          1           0       -0.384285    2.514851    0.378875
      5          1           0       -1.877275    1.214216   -1.074180
      6          6           0       -1.323971   -0.703947   -0.286214
      7          6           0       -0.442379   -1.435128    0.487802
      8          1           0       -1.877395   -1.214020   -1.074200
      9          1           0       -0.384562   -2.514834    0.378844
     10          1           0       -0.111652   -1.060964    1.449245
     11          6           0        1.573031    0.693116   -0.229105
     12          6           0        1.572979   -0.693244   -0.229107
     13          1           0        2.062333    1.237756    0.574267
     14          1           0        1.470466    1.235260   -1.163110
     15          1           0        1.470363   -1.235376   -1.163113
     16          1           0        2.062238   -1.237927    0.574260
 ---------------------------------------------------------------------
 Rotational constants (GHZ):           4.3516878           3.4706476           2.2611853
 Leave Link  202 at Mon May 26 08:21:11 2025, MaxMem=   104857600 cpu:               0.0 elap:               0.1
 (Enter /mlatom/software/Gaussian/g16-avx2/l301.exe)
 Standard basis: STO-3G (5D, 7F)
 Ernie: Thresh=  0.10000D-02 Tol=  0.10000D-05 Strict=F.
 There are    40 symmetry adapted cartesian basis functions of A   symmetry.
 There are    40 symmetry adapted basis functions of A   symmetry.
    40 basis functions,   120 primitive gaussians,    40 cartesian basis functions
    23 alpha electrons       23 beta electrons
       nuclear repulsion energy       224.2183990133 Hartrees.
 IExCor=    0 DFT=F Ex=HF Corr=None ExCW=0 ScaHFX=  1.000000
 ScaDFX=  1.000000  1.000000  1.000000  1.000000 ScalE2=  1.000000  1.000000
 IRadAn=      5 IRanWt=     -1 IRanGd=            0 ICorTp=0 IEmpDi=  4
 NAtoms=   16 NActive=   16 NUniq=   16 SFac= 1.00D+00 NAtFMM=   60 NAOKFM=F Big=F
 Integral buffers will be    131072 words long.
 Raffenetti 1 integral format.
 Two-electron integral symmetry is turned on.
 Leave Link  301 at Mon May 26 08:21:11 2025, MaxMem=   104857600 cpu:               0.0 elap:               0.1
 (Enter /mlatom/software/Gaussian/g16-avx2/l402.exe)
 External calculation of energy, first and second derivatives.
 Running external command "/mlatom/software/miniconda3/bin/python /mlatom/software/mlatom_xacs/mlatom/interfaces/gaussian_interface.py model_predict_kwargs R"
         input file       "/mlatom/home/huangyh/projects/delta_learning/paper/revision1/Starting_from_ub3lyp_d4/da/b3lyp/AL/ts/Gau-125725.EIn"
         output file      "/mlatom/home/huangyh/projects/delta_learning/paper/revision1/Starting_from_ub3lyp_d4/da/b3lyp/AL/ts/Gau-125725.EOu"
         message file     "/mlatom/home/huangyh/projects/delta_learning/paper/revision1/Starting_from_ub3lyp_d4/da/b3lyp/AL/ts/Gau-125725.EMs"
         fchk file        "/mlatom/home/huangyh/projects/delta_learning/paper/revision1/Starting_from_ub3lyp_d4/da/b3lyp/AL/ts/Gau-125725.EFC"
         mat. el file     "/mlatom/home/huangyh/projects/delta_learning/paper/revision1/Starting_from_ub3lyp_d4/da/b3lyp/AL/ts/Gau-125725.EUF"
model loaded from /mlatom/home/huangyh/projects/delta_learning/paper/revision1/Starting_from_ub3lyp_d4/da/b3lyp/AL/da_energy_iteration37.npz
 Recovered energy= -234.543228507     dipole=      0.000000000000      0.000000000000      0.000000000000
 Energy=    -234.543229     NIter=   0.
 Dipole moment=       0.000000       0.000000       0.000000
 Leave Link  402 at Mon May 26 08:21:17 2025, MaxMem=   104857600 cpu:               0.0 elap:               6.2
 (Enter /mlatom/software/Gaussian/g16-avx2/l601.exe)
 Leave Link  601 at Mon May 26 08:21:17 2025, MaxMem=   104857600 cpu:               0.0 elap:               0.1
 (Enter /mlatom/software/Gaussian/g16-avx2/l716.exe)
 Dipole        = 0.00000000D+00 0.00000000D+00 0.00000000D+00
 Full mass-weighted force constant matrix:
 Low frequencies --- -548.9057   -5.5300   -2.3344   -1.5066   -1.0308   -0.3145
 Low frequencies ---    0.2143   98.0192  182.2641
 ******    1 imaginary frequencies (negative Signs) ****** 
 Diagonal vibrational polarizability:
        0.0000000       0.0000000       0.0000000
 Harmonic frequencies (cm**-1), IR intensities (KM/Mole), Raman scattering
 activities (A**4/AMU), depolarization ratios for plane and unpolarized
 incident light, reduced masses (AMU), force constants (mDyne/A),
 and normal coordinates:
                      1                      2                      3
                      A                      A                      A
 Frequencies --   -548.9057                98.0191               182.2639
 Red. masses --      7.9179                 3.5463                 2.3513
 Frc consts  --      1.4056                 0.0201                 0.0460
 IR Inten    --      0.0000                 0.0000                 0.0000
  Atom  AN      X      Y      Z        X      Y      Z        X      Y      Z
     1   6    -0.35   0.12   0.10    -0.21   0.13   0.01     0.08  -0.03  -0.10
     2   6    -0.01   0.07   0.03    -0.08   0.01  -0.01     0.04  -0.04  -0.06
     3   1     0.21  -0.03  -0.17    -0.06   0.16  -0.03    -0.06   0.04  -0.02
     4   1    -0.22   0.10   0.04    -0.29   0.13  -0.05     0.12  -0.04  -0.17
     5   1     0.06  -0.01  -0.08    -0.16  -0.07  -0.00     0.10  -0.07  -0.13
     6   6    -0.01  -0.07   0.03     0.08   0.01   0.01    -0.04  -0.04   0.06
     7   6    -0.35  -0.12   0.10     0.21   0.13  -0.01    -0.08  -0.03   0.10
     8   1     0.06   0.01  -0.08     0.16  -0.07   0.00    -0.10  -0.07   0.13
     9   1    -0.22  -0.10   0.04     0.29   0.13   0.05    -0.12  -0.04   0.17
    10   1     0.21   0.03  -0.17     0.06   0.16   0.03     0.06   0.04   0.02
    11   6     0.37  -0.10  -0.12     0.14  -0.13   0.09     0.01   0.07   0.18
    12   6     0.37   0.10  -0.12    -0.14  -0.13  -0.09    -0.01   0.07  -0.18
    13   1    -0.09   0.03   0.07     0.10  -0.30   0.23     0.01  -0.17   0.35
    14   1    -0.15   0.04   0.04     0.18   0.04   0.19     0.17   0.30   0.30
    15   1    -0.15  -0.04   0.04    -0.18   0.04  -0.19    -0.17   0.30  -0.30
    16   1    -0.09  -0.03   0.07    -0.10  -0.30  -0.23    -0.01  -0.17  -0.35
                      4                      5                      6
                      A                      A                      A
 Frequencies --    272.7325               394.6565               402.6565
 Red. masses --      2.8631                 2.6382                 3.0740
 Frc consts  --      0.1255                 0.2421                 0.2936
 IR Inten    --      0.0000                 0.0000                 0.0000
  Atom  AN      X      Y      Z        X      Y      Z        X      Y      Z
     1   6    -0.05  -0.02   0.16     0.01  -0.23   0.05     0.06  -0.06  -0.04
     2   6     0.17   0.00  -0.09    -0.09  -0.00  -0.06    -0.04  -0.05   0.06
     3   1    -0.15  -0.10   0.17    -0.03  -0.48  -0.04     0.27  -0.12  -0.14
     4   1    -0.05  -0.01   0.25     0.08  -0.21   0.32    -0.08  -0.04   0.08
     5   1     0.38   0.03  -0.21    -0.10   0.13   0.04    -0.18  -0.02   0.17
     6   6     0.17  -0.00  -0.09    -0.09   0.00  -0.06     0.04  -0.05  -0.06
     7   6    -0.05   0.02   0.16     0.01   0.23   0.05    -0.06  -0.06   0.04
     8   1     0.38  -0.03  -0.21    -0.10  -0.13   0.04     0.18  -0.02  -0.17
     9   1    -0.05   0.01   0.25     0.08   0.21   0.32     0.08  -0.04  -0.08
    10   1    -0.15   0.10   0.17    -0.03   0.48  -0.04    -0.27  -0.12   0.14
    11   6    -0.11  -0.00  -0.07     0.07   0.00  -0.02     0.25   0.11  -0.08
    12   6    -0.11   0.00  -0.07     0.07  -0.00  -0.02    -0.25   0.11   0.08
    13   1    -0.01   0.01  -0.14     0.05   0.01  -0.00     0.29   0.05  -0.06
    14   1    -0.28   0.01  -0.05     0.09   0.00  -0.02     0.34   0.09  -0.10
    15   1    -0.28  -0.01  -0.05     0.09  -0.00  -0.02    -0.34   0.09   0.10
    16   1    -0.01  -0.01  -0.14     0.05  -0.01  -0.00    -0.29   0.05   0.06
                      7                      8                      9
                      A                      A                      A
 Frequencies --    496.7323               552.1971               653.2409
 Red. masses --      2.7514                 1.9386                 1.0969
 Frc consts  --      0.4000                 0.3483                 0.2758
 IR Inten    --      0.0000                 0.0000                 0.0000
  Atom  AN      X      Y      Z        X      Y      Z        X      Y      Z
     1   6    -0.08  -0.02   0.09     0.03   0.06   0.06    -0.00  -0.00   0.02
     2   6     0.16  -0.01  -0.16     0.10  -0.11   0.11     0.00  -0.00   0.02
     3   1    -0.26  -0.11   0.12     0.08   0.47   0.21    -0.03   0.00   0.03
     4   1     0.00  -0.02   0.14    -0.16   0.04  -0.32     0.04  -0.01   0.00
     5   1     0.40  -0.05  -0.35     0.21   0.00   0.10     0.12  -0.04  -0.08
     6   6    -0.16  -0.01   0.16    -0.10  -0.11  -0.11     0.00   0.00   0.02
     7   6     0.08  -0.02  -0.09    -0.03   0.06  -0.06    -0.00   0.00   0.02
     8   1    -0.40  -0.05   0.35    -0.21   0.00  -0.10     0.12   0.04  -0.08
     9   1    -0.00  -0.02  -0.14     0.16   0.04   0.32     0.04   0.01   0.00
    10   1     0.26  -0.11  -0.12    -0.08   0.47  -0.21    -0.03  -0.00   0.03
    11   6     0.10   0.04  -0.05     0.01   0.01  -0.01    -0.02  -0.01  -0.05
    12   6    -0.10   0.04   0.05    -0.01   0.01   0.01    -0.02   0.01  -0.05
    13   1     0.09   0.07  -0.06     0.02   0.01  -0.02    -0.42  -0.08   0.23
    14   1     0.02   0.01  -0.05     0.01   0.00  -0.01     0.47   0.08  -0.06
    15   1    -0.02   0.01   0.05    -0.01   0.00   0.01     0.47  -0.08  -0.06
    16   1    -0.09   0.07   0.06    -0.02   0.01   0.02    -0.42   0.08   0.23
                     10                     11                     12
                      A                      A                      A
 Frequencies --    678.5557               777.9114               791.6349
 Red. masses --      1.1728                 1.1202                 1.3847
 Frc consts  --      0.3182                 0.3994                 0.5113
 IR Inten    --      0.0000                 0.0000                 0.0000
  Atom  AN      X      Y      Z        X      Y      Z        X      Y      Z
     1   6    -0.00  -0.04   0.01    -0.00  -0.01  -0.02     0.03   0.04  -0.03
     2   6    -0.06  -0.00   0.04     0.03   0.03   0.01     0.10  -0.03  -0.05
     3   1    -0.19   0.13   0.14     0.31  -0.14  -0.19     0.26  -0.11  -0.17
     4   1     0.31  -0.09  -0.30     0.33  -0.05  -0.09    -0.45   0.11   0.32
     5   1     0.35  -0.05  -0.28     0.01   0.04   0.03    -0.15   0.02   0.16
     6   6    -0.06   0.00   0.04     0.03  -0.03   0.01    -0.10  -0.03   0.05
     7   6    -0.00   0.04   0.01    -0.00   0.01  -0.02    -0.03   0.04   0.03
     8   1     0.35   0.05  -0.28     0.01  -0.04   0.03     0.15   0.02  -0.16
     9   1     0.31   0.09  -0.30     0.33   0.05  -0.09     0.45   0.11  -0.32
    10   1    -0.19  -0.13   0.14     0.31   0.14  -0.19    -0.26  -0.11   0.17
    11   6     0.03  -0.00  -0.00    -0.03  -0.04   0.02    -0.03  -0.01   0.02
    12   6     0.03   0.00  -0.00    -0.03   0.04   0.02     0.03  -0.01  -0.02
    13   1     0.08   0.03  -0.06    -0.32   0.04   0.12    -0.02  -0.03   0.02
    14   1    -0.10  -0.03  -0.00    -0.30   0.01   0.09    -0.06   0.01   0.04
    15   1    -0.10   0.03  -0.00    -0.30  -0.01   0.09     0.06   0.01  -0.04
    16   1     0.08  -0.03  -0.06    -0.32  -0.04   0.12     0.02  -0.03  -0.02
                     13                     14                     15
                      A                      A                      A
 Frequencies --    867.6611               899.5281               913.2064
 Red. masses --      1.0255                 1.1476                 1.1814
 Frc consts  --      0.4549                 0.5471                 0.5805
 IR Inten    --      0.0000                 0.0000                 0.0000
  Atom  AN      X      Y      Z        X      Y      Z        X      Y      Z
     1   6    -0.00  -0.00  -0.00     0.05  -0.01  -0.02    -0.03   0.02   0.05
     2   6    -0.00  -0.00  -0.00    -0.04   0.02   0.01     0.03   0.01  -0.05
     3   1     0.02   0.00  -0.01    -0.39   0.09   0.19    -0.23   0.09   0.16
     4   1     0.04  -0.01  -0.03    -0.34   0.04   0.18     0.38  -0.04  -0.21
     5   1    -0.01  -0.01  -0.00     0.04  -0.04  -0.07    -0.36   0.08   0.27
     6   6    -0.00   0.00  -0.00     0.04   0.02  -0.01     0.03  -0.01  -0.05
     7   6    -0.00   0.00  -0.00    -0.05  -0.01   0.02    -0.03  -0.02   0.05
     8   1    -0.01   0.01  -0.00    -0.03  -0.04   0.07    -0.36  -0.08   0.27
     9   1     0.04   0.01  -0.03     0.34   0.04  -0.18     0.38   0.04  -0.21
    10   1     0.02  -0.00  -0.01     0.39   0.09  -0.19    -0.23  -0.09   0.16
    11   6    -0.01  -0.00  -0.03    -0.03   0.00  -0.01     0.01   0.00  -0.01
    12   6    -0.01   0.00  -0.03     0.03   0.00   0.01     0.01  -0.00  -0.01
    13   1     0.20  -0.45   0.15     0.08  -0.07  -0.03    -0.00   0.00  -0.01
    14   1    -0.04   0.42   0.23     0.33  -0.08  -0.10     0.08  -0.02  -0.03
    15   1    -0.04  -0.42   0.23    -0.33  -0.08   0.10     0.08   0.02  -0.03
    16   1     0.20   0.45   0.15    -0.08  -0.07   0.03    -0.00  -0.00  -0.01
                     16                     17                     18
                      A                      A                      A
 Frequencies --    951.9547               960.0705               999.8556
 Red. masses --      1.0871                 1.5741                 1.2527
 Frc consts  --      0.5805                 0.8548                 0.7378
 IR Inten    --      0.0000                 0.0000                 0.0000
  Atom  AN      X      Y      Z        X      Y      Z        X      Y      Z
     1   6    -0.01  -0.01   0.00    -0.03  -0.12  -0.00     0.03   0.01  -0.03
     2   6     0.01   0.01   0.00     0.06  -0.08   0.01    -0.06   0.00   0.07
     3   1     0.03  -0.00  -0.01     0.10   0.27   0.10     0.11  -0.07  -0.10
     4   1     0.01  -0.01  -0.00    -0.38  -0.14  -0.40    -0.19   0.04   0.16
     5   1     0.01   0.04   0.03    -0.04   0.02   0.16     0.44  -0.07  -0.33
     6   6    -0.01   0.01  -0.00     0.06   0.08   0.01     0.06   0.00  -0.07
     7   6     0.01  -0.01  -0.00    -0.03   0.12  -0.00    -0.03   0.01   0.03
     8   1    -0.01   0.04  -0.03    -0.04  -0.02   0.16    -0.44  -0.07   0.33
     9   1    -0.01  -0.01   0.00    -0.38   0.14  -0.40     0.19   0.04  -0.16
    10   1    -0.03  -0.00   0.01     0.10  -0.27   0.10    -0.11  -0.07   0.10
    11   6     0.01  -0.01  -0.05     0.01  -0.01  -0.01     0.04  -0.01   0.00
    12   6    -0.01  -0.01   0.05     0.01   0.01  -0.01    -0.04  -0.01  -0.00
    13   1    -0.58   0.04   0.26    -0.13   0.02   0.05    -0.12   0.06   0.05
    14   1     0.27   0.06  -0.04    -0.10   0.04   0.04    -0.27   0.04   0.07
    15   1    -0.27   0.06   0.04    -0.10  -0.04   0.04     0.27   0.04  -0.07
    16   1     0.58   0.04  -0.26    -0.13  -0.02   0.05     0.12   0.06  -0.05
                     19                     20                     21
                      A                      A                      A
 Frequencies --   1014.5900              1029.4659              1092.8319
 Red. masses --      1.2101                 1.2233                 1.5415
 Frc consts  --      0.7339                 0.7639                 1.0846
 IR Inten    --      0.0000                 0.0000                 0.0000
  Atom  AN      X      Y      Z        X      Y      Z        X      Y      Z
     1   6    -0.07  -0.01   0.03    -0.04   0.02   0.02    -0.05  -0.02  -0.06
     2   6     0.02  -0.02  -0.00    -0.01  -0.01   0.01     0.07  -0.09   0.06
     3   1     0.39  -0.04  -0.16     0.35  -0.08  -0.15    -0.24  -0.24  -0.08
     4   1     0.12  -0.05  -0.16     0.10   0.01   0.03     0.13  -0.02   0.08
     5   1     0.05  -0.02  -0.03     0.21  -0.05  -0.17    -0.16  -0.54  -0.05
     6   6     0.02   0.02  -0.00     0.01  -0.01  -0.01     0.07   0.09   0.06
     7   6    -0.07   0.01   0.03     0.04   0.02  -0.02    -0.05   0.02  -0.06
     8   1     0.05   0.02  -0.03    -0.21  -0.05   0.17    -0.16   0.54  -0.05
     9   1     0.12   0.05  -0.16    -0.10   0.01  -0.03     0.13   0.02   0.08
    10   1     0.39   0.04  -0.16    -0.35  -0.08   0.15    -0.24   0.24  -0.08
    11   6    -0.05   0.00   0.02    -0.08   0.02   0.00     0.00   0.00   0.00
    12   6    -0.05  -0.00   0.02     0.08   0.02  -0.00     0.00  -0.00   0.00
    13   1     0.31  -0.08  -0.13     0.16  -0.11  -0.05     0.04   0.00  -0.02
    14   1     0.33  -0.14  -0.11     0.45  -0.04  -0.10    -0.02  -0.02  -0.01
    15   1     0.34   0.14  -0.11    -0.44  -0.04   0.10    -0.02   0.02  -0.01
    16   1     0.31   0.08  -0.13    -0.16  -0.11   0.05     0.04  -0.00  -0.02
                     22                     23                     24
                      A                      A                      A
 Frequencies --   1109.6775              1231.4131              1243.1117
 Red. masses --      1.6088                 2.2296                 1.4092
 Frc consts  --      1.1672                 1.9920                 1.2830
 IR Inten    --      0.0000                 0.0000                 0.0000
  Atom  AN      X      Y      Z        X      Y      Z        X      Y      Z
     1   6     0.03   0.12  -0.00     0.01  -0.02  -0.04    -0.00   0.00  -0.01
     2   6     0.02  -0.09   0.05     0.02   0.04   0.03     0.00  -0.00   0.01
     3   1    -0.25  -0.21  -0.03    -0.24  -0.04   0.04    -0.07  -0.03   0.00
     4   1     0.38   0.13   0.31    -0.07  -0.00   0.04     0.02   0.00   0.01
     5   1    -0.11  -0.30  -0.00     0.05   0.15   0.09     0.02   0.03   0.02
     6   6    -0.02  -0.09  -0.05     0.02  -0.04   0.03    -0.00  -0.00  -0.01
     7   6    -0.03   0.12   0.00     0.01   0.02  -0.04     0.00   0.00   0.01
     8   1     0.11  -0.30   0.00     0.05  -0.15   0.09    -0.02   0.03  -0.02
     9   1    -0.38   0.13  -0.31    -0.07   0.00   0.04    -0.02   0.00  -0.01
    10   1     0.25  -0.21   0.03    -0.24   0.04   0.04     0.07  -0.03  -0.00
    11   6     0.01  -0.00   0.00    -0.02  -0.22   0.01    -0.04  -0.00  -0.13
    12   6    -0.01  -0.00  -0.00    -0.02   0.22   0.01     0.04  -0.00   0.13
    13   1    -0.04   0.03   0.01     0.09  -0.40   0.03     0.13  -0.44   0.07
    14   1     0.02  -0.03  -0.01     0.02  -0.41  -0.09    -0.09   0.47   0.16
    15   1    -0.02  -0.03   0.01     0.02   0.41  -0.09     0.09   0.47  -0.16
    16   1     0.04   0.03  -0.01     0.09   0.40   0.03    -0.13  -0.44  -0.07
                     25                     26                     27
                      A                      A                      A
 Frequencies --   1266.2293              1302.4684              1441.0469
 Red. masses --      1.4507                 1.5027                 1.2219
 Frc consts  --      1.3704                 1.5020                 1.4950
 IR Inten    --      0.0000                 0.0000                 0.0000
  Atom  AN      X      Y      Z        X      Y      Z        X      Y      Z
     1   6    -0.07  -0.00  -0.09     0.06   0.00   0.07    -0.01  -0.01  -0.02
     2   6     0.05  -0.02   0.07    -0.06  -0.04  -0.07    -0.05  -0.06  -0.06
     3   1    -0.25  -0.25  -0.13     0.25   0.27   0.12     0.11   0.38   0.11
     4   1     0.03  -0.02  -0.02     0.02   0.03   0.11     0.20   0.04   0.40
     5   1     0.25   0.45   0.24    -0.21  -0.42  -0.23     0.10   0.32   0.08
     6   6    -0.05  -0.02  -0.07    -0.06   0.04  -0.07     0.05  -0.06   0.06
     7   6     0.07  -0.00   0.09     0.06  -0.00   0.07     0.01  -0.01   0.02
     8   1    -0.25   0.45  -0.24    -0.21   0.42  -0.23    -0.10   0.32  -0.08
     9   1    -0.03  -0.02   0.02     0.02  -0.03   0.11    -0.20   0.04  -0.40
    10   1     0.25  -0.25   0.13     0.25  -0.27   0.12    -0.11   0.38  -0.11
    11   6    -0.00   0.00   0.02     0.01  -0.06  -0.00     0.01  -0.00  -0.00
    12   6     0.00   0.00  -0.02     0.01   0.06  -0.00    -0.01  -0.00   0.00
    13   1     0.05   0.04  -0.04    -0.06  -0.10   0.05    -0.00   0.01  -0.01
    14   1     0.06  -0.05  -0.02    -0.08  -0.11  -0.02    -0.02   0.01   0.01
    15   1    -0.06  -0.05   0.02    -0.08   0.11  -0.02     0.02   0.01  -0.01
    16   1    -0.05   0.04   0.04    -0.06   0.10   0.05     0.00   0.01   0.01
                     28                     29                     30
                      A                      A                      A
 Frequencies --   1502.5954              1507.3694              1541.5568
 Red. masses --      1.1089                 1.5379                 1.3102
 Frc consts  --      1.4752                 2.0589                 1.8344
 IR Inten    --      0.0000                 0.0000                 0.0000
  Atom  AN      X      Y      Z        X      Y      Z        X      Y      Z
     1   6     0.00  -0.00  -0.00    -0.04   0.00  -0.05     0.02   0.04   0.04
     2   6    -0.00   0.00   0.00    -0.01  -0.14  -0.00    -0.02  -0.04  -0.01
     3   1    -0.01   0.01   0.00     0.06   0.31   0.04    -0.03  -0.25  -0.06
     4   1    -0.01  -0.00   0.01     0.25   0.03   0.40    -0.09   0.01  -0.21
     5   1    -0.01  -0.02  -0.01     0.16   0.26   0.15     0.03   0.03  -0.00
     6   6     0.00   0.00  -0.00    -0.01   0.14  -0.00    -0.02   0.04  -0.01
     7   6    -0.00  -0.00   0.00    -0.04  -0.00  -0.05     0.02  -0.04   0.04
     8   1     0.01  -0.02   0.01     0.16  -0.26   0.15     0.03  -0.03  -0.00
     9   1     0.01  -0.00  -0.01     0.25  -0.03   0.40    -0.09  -0.01  -0.21
    10   1     0.01   0.01  -0.00     0.06  -0.31   0.04    -0.03   0.25  -0.06
    11   6    -0.01  -0.07   0.01     0.01   0.02  -0.00     0.02   0.09  -0.01
    12   6     0.01  -0.07  -0.01     0.01  -0.02  -0.00     0.02  -0.09  -0.01
    13   1     0.00   0.40  -0.30    -0.01  -0.10   0.09    -0.03  -0.31   0.29
    14   1     0.18   0.39   0.23    -0.07  -0.10  -0.06    -0.18  -0.32  -0.22
    15   1    -0.18   0.39  -0.23    -0.07   0.10  -0.06    -0.18   0.32  -0.22
    16   1    -0.00   0.40   0.30    -0.01   0.10   0.09    -0.03   0.31   0.29
                     31                     32                     33
                      A                      A                      A
 Frequencies --   1587.4388              1609.9358              3096.0467
 Red. masses --      2.4772                 2.3269                 1.0604
 Frc consts  --      3.6780                 3.5534                 5.9887
 IR Inten    --      0.0000                 0.0000                 0.0000
  Atom  AN      X      Y      Z        X      Y      Z        X      Y      Z
     1   6    -0.05  -0.09  -0.06     0.09   0.09   0.10    -0.01  -0.04  -0.02
     2   6     0.06   0.19   0.04    -0.11  -0.10  -0.11    -0.00   0.01  -0.01
     3   1     0.06   0.39   0.09    -0.05  -0.37  -0.03     0.12  -0.14   0.31
     4   1     0.06  -0.07   0.23    -0.15   0.07  -0.34     0.04   0.59  -0.07
     5   1    -0.12  -0.17  -0.07     0.10   0.39   0.04     0.07  -0.06   0.10
     6   6     0.06  -0.19   0.04     0.11  -0.10   0.11    -0.00  -0.01  -0.01
     7   6    -0.05   0.09  -0.06    -0.09   0.09  -0.10    -0.01   0.04  -0.02
     8   1    -0.12   0.17  -0.07    -0.10   0.39  -0.04     0.07   0.06   0.10
     9   1     0.06   0.07   0.23     0.15   0.07   0.34     0.04  -0.59  -0.07
    10   1     0.06  -0.39   0.09     0.05  -0.37   0.03     0.12   0.14   0.31
    11   6    -0.00   0.11  -0.00     0.00  -0.00  -0.00     0.00   0.00   0.00
    12   6    -0.00  -0.11  -0.00    -0.00  -0.00   0.00     0.00  -0.00   0.00
    13   1     0.04  -0.20   0.19    -0.02   0.01  -0.00    -0.00  -0.00  -0.00
    14   1    -0.07  -0.21  -0.18     0.01   0.03   0.01    -0.00  -0.00  -0.00
    15   1    -0.07   0.21  -0.18    -0.01   0.03  -0.01    -0.00   0.00  -0.00
    16   1     0.04   0.20   0.19     0.02   0.01   0.00    -0.00   0.00  -0.00
                     34                     35                     36
                      A                      A                      A
 Frequencies --   3105.7933              3122.2823              3129.3958
 Red. masses --      1.0640                 1.0857                 1.0943
 Frc consts  --      6.0472                 6.2360                 6.3140
 IR Inten    --      0.0000                 0.0000                 0.0000
  Atom  AN      X      Y      Z        X      Y      Z        X      Y      Z
     1   6    -0.01  -0.04  -0.02    -0.01  -0.02  -0.01     0.01   0.01   0.01
     2   6    -0.01   0.01  -0.02     0.03  -0.02   0.04    -0.03   0.03  -0.04
     3   1     0.09  -0.11   0.23     0.06  -0.08   0.16    -0.04   0.05  -0.11
     4   1     0.04   0.54  -0.07     0.02   0.29  -0.04    -0.01  -0.08   0.01
     5   1     0.18  -0.16   0.25    -0.31   0.28  -0.44     0.35  -0.32   0.50
     6   6     0.01   0.01   0.02    -0.03  -0.02  -0.04    -0.03  -0.03  -0.04
     7   6     0.01  -0.04   0.02     0.01  -0.02   0.01     0.01  -0.01   0.01
     8   1    -0.18  -0.16  -0.25     0.31   0.28   0.44     0.35   0.32   0.49
     9   1    -0.04   0.55   0.07    -0.02   0.30   0.04    -0.01   0.08   0.01
    10   1    -0.09  -0.11  -0.23    -0.06  -0.08  -0.16    -0.04  -0.05  -0.11
    11   6     0.00   0.00  -0.00    -0.00  -0.00  -0.00    -0.00  -0.00  -0.00
    12   6    -0.00   0.00   0.00     0.00  -0.00   0.00    -0.00   0.00  -0.00
    13   1    -0.02  -0.02  -0.03     0.01   0.02   0.02     0.01   0.01   0.02
    14   1     0.00  -0.02   0.03    -0.00   0.01  -0.01    -0.00   0.01  -0.02
    15   1    -0.00  -0.02  -0.03     0.00   0.01   0.01    -0.00  -0.01  -0.02
    16   1     0.02  -0.02   0.03    -0.01   0.02  -0.02     0.01  -0.01   0.02
                     37                     38                     39
                      A                      A                      A
 Frequencies --   3147.1111              3161.8011              3195.5358
 Red. masses --      1.0482                 1.0606                 1.1113
 Frc consts  --      6.1164                 6.2470                 6.6858
 IR Inten    --      0.0000                 0.0000                 0.0000
  Atom  AN      X      Y      Z        X      Y      Z        X      Y      Z
     1   6    -0.00   0.00  -0.00    -0.00   0.00  -0.00    -0.01   0.05  -0.05
     2   6     0.00  -0.00   0.00    -0.00   0.00  -0.00    -0.00   0.00  -0.00
     3   1     0.01  -0.01   0.01     0.01  -0.01   0.03     0.19  -0.21   0.52
     4   1    -0.00  -0.04   0.00    -0.00  -0.03   0.00    -0.02  -0.36   0.04
     5   1    -0.03   0.02  -0.04     0.02  -0.02   0.03     0.03  -0.03   0.05
     6   6    -0.00  -0.00  -0.00    -0.00  -0.00  -0.00    -0.00  -0.00  -0.00
     7   6     0.00   0.00   0.00    -0.00  -0.00  -0.00    -0.01  -0.05  -0.05
     8   1     0.03   0.02   0.04     0.02   0.02   0.03     0.03   0.03   0.05
     9   1     0.00  -0.04  -0.00    -0.00   0.03   0.00    -0.02   0.36   0.04
    10   1    -0.01  -0.01  -0.01     0.01   0.01   0.03     0.19   0.21   0.53
    11   6     0.01   0.04  -0.01     0.01   0.05  -0.01     0.00  -0.00   0.00
    12   6    -0.01   0.04   0.01     0.01  -0.05  -0.01     0.00   0.00   0.00
    13   1    -0.20  -0.22  -0.36    -0.20  -0.22  -0.35     0.00   0.01   0.01
    14   1     0.06  -0.25   0.45     0.06  -0.26   0.46    -0.01   0.03  -0.04
    15   1    -0.06  -0.25  -0.45     0.06   0.26   0.46    -0.01  -0.03  -0.04
    16   1     0.20  -0.22   0.36    -0.20   0.22  -0.35     0.00  -0.01   0.01
                     40                     41                     42
                      A                      A                      A
 Frequencies --   3198.1405              3223.7894              3249.8366
 Red. masses --      1.1127                 1.1165                 1.1184
 Frc consts  --      6.7053                 6.8368                 6.9597
 IR Inten    --      0.0000                 0.0000                 0.0000
  Atom  AN      X      Y      Z        X      Y      Z        X      Y      Z
     1   6    -0.02   0.04  -0.05     0.00  -0.01   0.01    -0.00   0.00  -0.00
     2   6    -0.00   0.00  -0.00     0.00  -0.00   0.00     0.00  -0.00   0.00
     3   1     0.20  -0.22   0.53    -0.05   0.06  -0.14     0.01  -0.01   0.02
     4   1    -0.02  -0.30   0.03     0.01   0.08  -0.01    -0.00  -0.01   0.00
     5   1     0.02  -0.02   0.02    -0.01   0.01  -0.02    -0.00   0.00  -0.00
     6   6     0.00   0.00   0.00    -0.00  -0.00  -0.00     0.00   0.00   0.00
     7   6     0.02   0.04   0.05    -0.00  -0.01  -0.01    -0.00  -0.00  -0.00
     8   1    -0.02  -0.02  -0.02     0.01   0.01   0.02    -0.00  -0.00  -0.00
     9   1     0.02  -0.30  -0.03    -0.01   0.08   0.01    -0.00   0.01   0.00
    10   1    -0.20  -0.22  -0.53     0.05   0.06   0.14     0.01   0.01   0.02
    11   6     0.01  -0.00   0.02     0.02   0.00   0.06    -0.02  -0.00  -0.07
    12   6    -0.01  -0.00  -0.02    -0.02   0.00  -0.06    -0.02   0.00  -0.07
    13   1    -0.05  -0.06  -0.08    -0.23  -0.26  -0.38     0.24   0.27   0.40
    14   1    -0.02   0.07  -0.12    -0.05   0.22  -0.39     0.05  -0.23   0.39
    15   1     0.02   0.07   0.12     0.05   0.22   0.39     0.05   0.23   0.39
    16   1     0.05  -0.06   0.08     0.23  -0.26   0.38     0.24  -0.27   0.40

 -------------------
 - Thermochemistry -
 -------------------
 Temperature   298.150 Kelvin.  Pressure   1.00000 Atm.
 Atom     1 has atomic number  6 and mass  12.00000
 Atom     2 has atomic number  6 and mass  12.00000
 Atom     3 has atomic number  1 and mass   1.00783
 Atom     4 has atomic number  1 and mass   1.00783
 Atom     5 has atomic number  1 and mass   1.00783
 Atom     6 has atomic number  6 and mass  12.00000
 Atom     7 has atomic number  6 and mass  12.00000
 Atom     8 has atomic number  1 and mass   1.00783
 Atom     9 has atomic number  1 and mass   1.00783
 Atom    10 has atomic number  1 and mass   1.00783
 Atom    11 has atomic number  6 and mass  12.00000
 Atom    12 has atomic number  6 and mass  12.00000
 Atom    13 has atomic number  1 and mass   1.00783
 Atom    14 has atomic number  1 and mass   1.00783
 Atom    15 has atomic number  1 and mass   1.00783
 Atom    16 has atomic number  1 and mass   1.00783
 Molecular mass:    82.07825 amu.
 Principal axes and moments of inertia in atomic units:
                           1         2         3
     Eigenvalues --   414.72212 520.00128 798.13944
           X            0.99976   0.00001   0.02196
           Y           -0.00001   1.00000  -0.00000
           Z           -0.02196   0.00000   0.99976
 This molecule is an asymmetric top.
 Rotational symmetry number  1.
 Rotational temperatures (Kelvin)      0.20885     0.16656     0.10852
 Rotational constants (GHZ):           4.35169     3.47065     2.26119
    1 imaginary frequencies ignored.
 Zero-point vibrational energy     364875.0 (Joules/Mol)
                                   87.20722 (Kcal/Mol)
 Warning -- explicit consideration of   7 degrees of freedom as
           vibrations may cause significant error
 Vibrational temperatures:    141.03   262.24   392.40   567.82   579.33
          (Kelvin)            714.69   794.49   939.87   976.29  1119.24
                             1138.99  1248.37  1294.22  1313.90  1369.65
                             1381.33  1438.57  1459.77  1481.17  1572.34
                             1596.58  1771.73  1788.56  1821.82  1873.96
                             2073.35  2161.90  2168.77  2217.96  2283.97
                             2316.34  4454.52  4468.54  4492.27  4502.50
                             4527.99  4549.13  4597.66  4601.41  4638.31
                             4675.79
 
 Zero-point correction=                           0.138974 (Hartree/Particle)
 Thermal correction to Energy=                    0.145533
 Thermal correction to Enthalpy=                  0.146477
 Thermal correction to Gibbs Free Energy=         0.109099
 Sum of electronic and zero-point Energies=           -234.404255
 Sum of electronic and thermal Energies=              -234.397696
 Sum of electronic and thermal Enthalpies=            -234.396752
 Sum of electronic and thermal Free Energies=         -234.434130
 
                     E (Thermal)             CV                S
                      KCal/Mol        Cal/Mol-Kelvin    Cal/Mol-Kelvin
 Total                   91.323             25.096             78.669
 Electronic               0.000              0.000              0.000
 Translational            0.889              2.981             39.129
 Rotational               0.889              2.981             26.645
 Vibrational             89.546             19.135             12.894
 Vibration     1          0.603              1.951              3.493
 Vibration     2          0.630              1.864              2.305
 Vibration     3          0.676              1.724              1.579
 Vibration     4          0.762              1.482              0.982
 Vibration     5          0.768              1.464              0.953
 Vibration     6          0.852              1.257              0.666
 Vibration     7          0.908              1.135              0.540
                       Q            Log10(Q)             Ln(Q)
 Total Bot       0.657803D-50        -50.181904       -115.548105
 Total V=0       0.551363D+14         13.741438         31.640830
 Vib (Bot)       0.151542D-62        -62.819466       -144.647167
 Vib (Bot)    1  0.209455D+01          0.321090          0.739336
 Vib (Bot)    2  0.110111D+01          0.041831          0.096319
 Vib (Bot)    3  0.707620D+00         -0.150200         -0.345848
 Vib (Bot)    4  0.453383D+00         -0.343535         -0.791019
 Vib (Bot)    5  0.441788D+00         -0.354786         -0.816925
 Vib (Bot)    6  0.331826D+00         -0.479089         -1.103143
 Vib (Bot)    7  0.283596D+00         -0.547299         -1.260203
 Vib (V=0)       0.127021D+02          1.103876          2.541769
 Vib (V=0)    1  0.265340D+01          0.423802          0.975841
 Vib (V=0)    2  0.170932D+01          0.232822          0.536093
 Vib (V=0)    3  0.136644D+01          0.135592          0.312212
 Vib (V=0)    4  0.117495D+01          0.070019          0.161225
 Vib (V=0)    5  0.116722D+01          0.067151          0.154621
 Vib (V=0)    6  0.110009D+01          0.041428          0.095393
 Vib (V=0)    7  0.107483D+01          0.031339          0.072160
 Electronic      0.100000D+01          0.000000          0.000000
 Translational   0.292278D+08          7.465796         17.190631
 Rotational      0.148513D+06          5.171766         11.908431
 ***** Axes restored to original set *****
 -------------------------------------------------------------------
 Center     Atomic                   Forces (Hartrees/Bohr)
 Number     Number              X              Y              Z
 -------------------------------------------------------------------
      1        6          -0.000001092    0.000002367    0.000000333
      2        6           0.000001694   -0.000001164   -0.000001084
      3        1          -0.000002970    0.000001034   -0.000002171
      4        1          -0.000000255   -0.000001212   -0.000000046
      5        1          -0.000000147   -0.000000585    0.000000367
      6        6           0.000002019    0.000000826   -0.000001135
      7        6          -0.000001366   -0.000001464    0.000000416
      8        1          -0.000000165    0.000000568    0.000000503
      9        1          -0.000000338    0.000001657   -0.000000517
     10        1          -0.000004359   -0.000002390   -0.000003138
     11        6           0.000000968    0.000000484    0.000001958
     12        6           0.000001130   -0.000000870    0.000000635
     13        1           0.000001413   -0.000000178    0.000000648
     14        1           0.000000704    0.000000175    0.000000465
     15        1           0.000000856   -0.000000116    0.000000759
     16        1           0.000001910    0.000000867    0.000002008
 -------------------------------------------------------------------
 Cartesian Forces:  Max     0.000004359 RMS     0.000001428
 Z-matrix is all fixed cartesians, so copy forces.
 Leave Link  716 at Mon May 26 08:21:17 2025, MaxMem=   104857600 cpu:               0.0 elap:               0.1
 (Enter /mlatom/software/Gaussian/g16-avx2/l103.exe)

 GradGradGradGradGradGradGradGradGradGradGradGradGradGradGradGradGradGrad
 Berny optimization.
 Search for a local minimum.
 Step number   1 out of a maximum of    2
 All quantities printed in internal units (Hartrees-Bohrs-Radians)
 Second derivative matrix not updated -- analytic derivatives used.
 ITU=  0
     Eigenvalues ---   -0.11878   0.00118   0.00360   0.00706   0.01289
     Eigenvalues ---    0.01454   0.02076   0.02183   0.02383   0.02600
     Eigenvalues ---    0.03004   0.03243   0.03420   0.03672   0.05243
     Eigenvalues ---    0.05679   0.06688   0.07321   0.07948   0.08553
     Eigenvalues ---    0.11581   0.13426   0.13580   0.13666   0.14863
     Eigenvalues ---    0.15096   0.16788   0.22115   0.24408   0.29296
     Eigenvalues ---    0.39031   0.51863   0.56129   0.70851   0.77688
     Eigenvalues ---    0.86706   0.88170   0.99589   1.00753   1.05451
     Eigenvalues ---    1.15223   1.24804
 Eigenvalue     1 is  -1.19D-01 should be greater than     0.000000 Eigenvector:
                          X11       X12       X1        X7        Z11
   1                    0.47146   0.47145  -0.41592  -0.41591   0.14621
                          Z12       Z1        Z7        Y11       Y12
   1                    0.14620  -0.13823  -0.13821  -0.12421   0.12417
 Angle between quadratic step and forces=  45.86 degrees.
 Linear search not attempted -- first point.
 B after Tr=     0.000003    0.000000   -0.000004
         Rot=    1.000000    0.000000   -0.000001    0.000000 Ang=   0.00 deg.
 Variable       Old X    -DE/DX   Delta X   Delta X   Delta X     New X
                                 (Linear)    (Quad)   (Total)
    X1        0.83567  -0.00000   0.00000   0.00000   0.00001   0.83567
    Y1       -2.71204   0.00000   0.00000   0.00001   0.00001  -2.71203
    Z1        0.92183   0.00000   0.00000  -0.00004  -0.00005   0.92178
    X2        2.50181   0.00000   0.00000   0.00005   0.00005   2.50186
    Y2       -1.33051  -0.00000   0.00000  -0.00000  -0.00000  -1.33051
    Z2       -0.54085  -0.00000   0.00000  -0.00000  -0.00001  -0.54086
    X3        0.21073  -0.00000   0.00000  -0.00012  -0.00011   0.21062
    Y3       -2.00485   0.00000   0.00000   0.00005   0.00005  -2.00479
    Z3        2.73866  -0.00000   0.00000  -0.00011  -0.00011   2.73855
    X4        0.72619  -0.00000   0.00000   0.00000   0.00001   0.72620
    Y4       -4.75238  -0.00000   0.00000   0.00001   0.00001  -4.75237
    Z4        0.71597  -0.00000   0.00000  -0.00002  -0.00002   0.71595
    X5        3.54754  -0.00000   0.00000   0.00012   0.00012   3.54766
    Y5       -2.29454  -0.00000   0.00000  -0.00002  -0.00002  -2.29456
    Z5       -2.02991   0.00000   0.00000   0.00006   0.00005  -2.02985
    X6        2.50194   0.00000   0.00000   0.00004   0.00004   2.50199
    Y6        1.33027   0.00000   0.00000   0.00000   0.00000   1.33027
    Z6       -0.54087  -0.00000   0.00000  -0.00000  -0.00001  -0.54088
    X7        0.83597  -0.00000   0.00000  -0.00005  -0.00004   0.83593
    Y7        2.71200  -0.00000   0.00000  -0.00004  -0.00004   2.71196
    Z7        0.92181   0.00000   0.00000  -0.00006  -0.00007   0.92174
    X8        3.54776  -0.00000   0.00000   0.00012   0.00011   3.54788
    Y8        2.29417   0.00000   0.00000   0.00003   0.00003   2.29420
    Z8       -2.02994   0.00000   0.00000   0.00007   0.00006  -2.02988
    X9        0.72672  -0.00000   0.00000  -0.00007  -0.00007   0.72665
    Y9        4.75235   0.00000   0.00000  -0.00003  -0.00003   4.75231
    Z9        0.71591  -0.00000   0.00000  -0.00001  -0.00002   0.71589
   X10        0.21099  -0.00000   0.00000  -0.00019  -0.00018   0.21081
   Y10        2.00493  -0.00000   0.00000  -0.00012  -0.00012   2.00481
   Z10        2.73868  -0.00000   0.00000  -0.00015  -0.00016   2.73852
   X11       -2.97260   0.00000   0.00000  -0.00002  -0.00002  -2.97262
   Y11       -1.30980   0.00000   0.00000   0.00002   0.00002  -1.30978
   Z11       -0.43295   0.00000   0.00000   0.00004   0.00004  -0.43290
   X12       -2.97250   0.00000   0.00000   0.00000   0.00001  -2.97249
   Y12        1.31004  -0.00000   0.00000   0.00002   0.00002   1.31006
   Z12       -0.43295   0.00000   0.00000   0.00003   0.00003  -0.43292
   X13       -3.89724   0.00000   0.00000   0.00006   0.00007  -3.89718
   Y13       -2.33902  -0.00000   0.00000   0.00002   0.00002  -2.33900
   Z13        1.08521   0.00000   0.00000   0.00009   0.00010   1.08531
   X14       -2.77878   0.00000   0.00000  -0.00007  -0.00007  -2.77885
   Y14       -2.33430   0.00000   0.00000   0.00001   0.00001  -2.33429
   Z14       -2.19796   0.00000   0.00000   0.00004   0.00005  -2.19791
   X15       -2.77858   0.00000   0.00000  -0.00004  -0.00004  -2.77862
   Y15        2.33452  -0.00000   0.00000   0.00001   0.00001   2.33453
   Z15       -2.19797   0.00000   0.00000   0.00002   0.00002  -2.19794
   X16       -3.89707   0.00000   0.00000   0.00011   0.00011  -3.89695
   Y16        2.33934   0.00000   0.00000   0.00004   0.00004   2.33938
   Z16        1.08519   0.00000   0.00000   0.00008   0.00008   1.08528
         Item               Value     Threshold  Converged?
 Maximum Force            0.000004     0.000450     YES
 RMS     Force            0.000001     0.000300     YES
 Maximum Displacement     0.000181     0.001800     YES
 RMS     Displacement     0.000066     0.001200     YES
 Predicted change in Energy=-1.584929D-09
 Optimization completed.
    -- Stationary point found.
 GradGradGradGradGradGradGradGradGradGradGradGradGradGradGradGradGradGrad

 Leave Link  103 at Mon May 26 08:21:17 2025, MaxMem=   104857600 cpu:               0.0 elap:               0.1
 (Enter /mlatom/software/Gaussian/g16-avx2/l9999.exe)
 1\1\GINC-B002\Freq\RExternal='/mlatom/software/miniconda3/bin/python /
 mlatom/software/mlatom_xacs/ml\ZDO\C6H10\UNKNOWN\26-May-2025\0\\#p Fre
 q external='/mlatom/software/miniconda3/bin/python /mlatom/software/ml
 atom_xacs/mlatom/interfaces/gaussian_interface.py model_predict_kwargs
 '\\e3c394ac-d43d-4b20-ab1f-90bc8eaff70c\\0,1\C,0.442214943,-1.43514873
 53,0.4878091477\C,1.3238986546,-0.7040738672,-0.2862057223\H,0.1115143
 029,-1.0609195251,1.4492351218\H,0.3842851547,-2.5148509664,0.37887511
 16\H,1.877275398,-1.2142162075,-1.0741797042\C,1.3239709063,0.70394657
 32,-0.2862140173\C,0.4423786988,1.4351282086,0.4878019085\H,1.87739479
 04,1.2140202437,-1.0741996779\H,0.3845624126,2.5148339291,0.3788438083
 \H,0.1116523059,1.0609642848,1.449245375\C,-1.5730314555,-0.6931163558
 ,-0.2291047325\C,-1.5729790676,0.693244383,-0.2291072368\H,-2.06233282
 31,-1.2377561585,0.5742670465\H,-1.470466263,-1.2352596603,-1.16310953
 1\H,-1.4703631169,1.2353762625,-1.1631133273\H,-2.0622382387,1.2379265
 585,0.5742596935\\Version=ES64L-G16RevA.03\HF=-234.5432285\RMSD=0.000e
 +00\RMSF=1.428e-06\ZeroPoint=0.1389736\Thermal=0.1455328\Dipole=0.,0.,
 0.\PG=C01 [X(C6H10)]\NImag=1\\0.22408506,0.12202115,0.63602668,-0.2476
 5569,0.02727151,0.54044694,-0.16402298,-0.11127397,0.14050572,0.388123
 87,-0.05043457,-0.18161836,0.07411208,0.02851767,0.65723151,0.11768041
 ,0.08254595,-0.19265808,-0.28359368,0.02172140,0.45900711,-0.04558047,
 0.02448536,0.08243716,-0.01065881,0.00049611,0.02385065,0.06862404,0.0
 2258826,-0.08984388,-0.09206721,-0.00314252,0.01468186,0.01514324,-0.0
 3034620,0.09205091,0.09789255,-0.09154230,-0.27282545,0.00345231,-0.01
 004569,-0.00757739,-0.09519375,0.09804384,0.27875057,-0.03652349,-0.01
 237578,0.00863932,0.00218319,-0.02295371,-0.00329172,0.00106887,0.0085
 7962,-0.00036215,0.03417978,-0.02284352,-0.31937829,-0.03252320,0.0026
 4043,-0.01543006,-0.00499024,-0.00016937,-0.00853886,0.00235501,0.0228
 0470,0.33968306,0.01214947,-0.03128838,-0.05511674,-0.00093413,0.01561
 483,0.00511665,-0.00164950,-0.02564957,0.00122449,-0.01024521,0.034148
 95,0.04911241,-0.00474894,0.00982518,0.01544088,-0.11439046,0.05678995
 ,0.10794096,0.00251846,-0.00335923,0.00278531,-0.00191837,0.00154120,-
 0.00262900,0.11202963,-0.00975257,0.00811812,0.01653878,0.05809209,-0.
 11613481,-0.09234793,-0.00326907,-0.00088994,0.00094181,0.00054529,0.0
 0134753,0.00055173,-0.06485970,0.12249117,0.01076740,-0.00832084,-0.01
 206296,0.11066383,-0.09380561,-0.18693563,0.00503557,0.00005683,0.0008
 3248,-0.00284414,0.00053889,-0.00030674,-0.12174289,0.09845696,0.19397
 995,0.02131753,-0.01587587,-0.00671126,-0.08543947,-0.02016129,0.03565
 549,-0.00456667,0.00302425,-0.00131605,-0.00077296,-0.00352588,0.00425
 630,0.00466054,0.01936708,0.00048373,0.38811070,-0.06778731,-0.0320666
 4,0.02345634,0.02013977,-0.31316909,-0.03369323,0.00708969,-0.00281840
 ,0.00074849,-0.00141913,0.00092045,0.00267367,0.00286227,-0.00912458,0
 .00209300,-0.02849730,0.65724325,-0.02202117,0.01493968,0.01616816,0.0
 3565859,0.03368982,-0.10508183,0.00095467,-0.00129795,0.00029436,0.005
 94193,0.00075004,0.00039899,-0.00112400,-0.02581391,0.00360792,-0.2835
 9586,-0.02168795,0.45902181,-0.05213450,-0.00683933,0.00829973,0.02132
 584,0.06777834,-0.02202330,0.00508776,-0.00395283,0.00290823,-0.000355
 38,-0.00041866,0.00165851,0.00488320,-0.00234672,0.00342074,-0.1640027
 6,0.05043785,0.11767181,0.22405455,0.00684567,-0.00319382,-0.00591931,
 0.01586946,-0.03207540,-0.01493617,0.00049318,-0.00114089,-0.00213612,
 0.00118970,0.00057036,-0.00043892,-0.00140151,-0.00584419,-0.00048012,
 0.11127525,-0.18164130,-0.08256283,-0.12198599,0.63605255,0.00830091,0
 .00591799,-0.00630093,-0.00671355,-0.02345300,0.01616908,-0.00128731,0
 .00304309,0.00116877,0.00107724,0.00010348,-0.00118483,0.00267668,0.00
 295679,0.00087447,0.14049855,-0.07413355,-0.19266270,-0.24765219,-0.02
 723731,0.54045862,0.00488359,0.00140014,0.00267660,0.00465845,-0.00286
 370,-0.00112149,-0.00054187,0.00077688,-0.00043437,0.00066776,-0.00006
 592,-0.00002841,-0.00253913,0.00073767,-0.00238844,-0.11440069,-0.0567
 8777,0.10794985,-0.00474854,-0.00982353,0.01543986,0.11204075,0.002346
 26,-0.00584422,-0.00295722,-0.01936914,-0.00912284,0.02581449,-0.00004
 178,-0.00063240,-0.00014364,-0.00172595,-0.00048124,0.00124929,-0.0007
 3730,0.00165615,0.00030629,-0.05808911,-0.11611991,0.09233556,0.009753
 10,0.00811820,-0.01654067,0.06485800,0.12247485,0.00342117,0.00048016,
 0.00087412,0.00048350,-0.00209315,0.00360782,-0.00047312,-0.00097209,0
 .00035985,0.00028874,-0.00011783,0.00024723,-0.00238857,-0.00030605,-0
 .00048921,0.11067269,0.09379380,-0.18693867,0.01076902,0.00831884,-0.0
 1206375,-0.12175266,-0.09844319,0.19398090,-0.00035540,-0.00118935,0.0
 0107713,-0.00077240,0.00141912,0.00594206,0.00019812,-0.00035555,0.000
 04785,-0.00008516,0.00002584,-0.00018524,0.00066784,0.00172579,0.00028
 870,0.00218563,0.02295170,-0.00329199,-0.03652041,0.01234725,0.0086424
 2,-0.00191858,-0.00054503,-0.00284413,0.03417439,0.00041885,0.00057069
 ,-0.00010394,0.00352607,0.00091996,-0.00075076,-0.00010061,-0.00074402
 ,-0.00069377,-0.00002571,0.00069563,-0.00012933,0.00006568,-0.00048144
 ,0.00011786,-0.00264130,-0.01543445,0.00499058,0.02281412,-0.31938162,
 0.03252824,-0.00154069,0.00134786,-0.00053869,-0.02277346,0.33968914,0
 .00165855,0.00043846,-0.00118479,0.00425593,-0.00267381,0.00039883,-0.
 00021014,0.00092946,0.00077176,-0.00018523,0.00012927,0.00016084,-0.00
 002854,-0.00124926,0.00024724,-0.00093594,-0.01561454,0.00511762,0.012
 15115,0.03129192,-0.05511976,-0.00262908,-0.00055155,-0.00030677,-0.01
 024842,-0.03415455,0.04911495,0.00508910,-0.00049329,-0.00128783,-0.00
 456790,-0.00709051,0.00095506,0.00029699,0.00099954,-0.00087079,0.0001
 9809,0.00010055,-0.00021025,-0.00054180,0.00004156,-0.00047296,-0.0106
 5871,-0.00049287,0.02384958,-0.04558264,-0.02448502,0.08244218,0.00251
 935,0.00326895,0.00503537,0.00106823,0.00016869,-0.00164651,0.06862387
 ,0.00395247,-0.00114084,-0.00304315,-0.00302405,-0.00281694,0.00129784
 ,-0.00100048,-0.00096243,0.00219729,0.00035530,-0.00074401,-0.00092913
 ,-0.00077691,-0.00063220,0.00097208,0.00314493,0.01468224,-0.01514571,
 -0.02258858,-0.08983393,0.09204993,0.00335910,-0.00089102,-0.00005724,
 -0.00858088,-0.00853739,0.02565052,0.03034329,0.09203707,0.00290844,0.
 00213601,0.00116940,-0.00131548,-0.00074861,0.00029397,-0.00087110,-0.
 00219710,0.00009865,0.00004787,0.00069384,0.00077169,-0.00043434,0.000
 14380,0.00035975,0.00345397,0.01004442,-0.00757832,0.09789821,0.091524
 65,-0.27282897,0.00278494,-0.00094216,0.00083241,-0.00036204,-0.002353
 44,0.00122365,-0.09520286,-0.09802783,0.27875602,0.06051695,-0.0141906
 1,0.00165986,-0.03107063,-0.04092859,0.01654623,-0.01403093,0.00441483
 ,-0.00899660,0.00120826,0.00072515,-0.00045655,-0.00095396,-0.00038521
 ,-0.00227519,-0.01295617,0.03162109,0.00986755,0.02996591,-0.00325062,
 -0.00053225,-0.00154728,0.00065603,-0.00054687,-0.00178052,0.00049119,
 -0.00167250,-0.00424620,-0.00118438,-0.00296435,0.14836498,-0.06808865
 ,-0.00818625,-0.00560594,0.02195928,0.03806370,-0.01585387,0.00865618,
 -0.00054037,0.00631417,0.00452502,0.00057707,0.00446590,0.00240453,0.0
 0003611,-0.00026614,0.01034081,-0.03881610,-0.01237041,-0.04994076,-0.
 00225517,0.00081935,0.00228935,0.00023191,-0.00048403,-0.00008045,-0.0
 0128760,0.00016914,0.00547266,-0.00079215,0.00341861,0.11430528,0.6160
 7128,0.02132814,-0.00306703,-0.01737353,-0.00713441,-0.01257901,0.0070
 4596,-0.01046427,0.00295515,-0.00454253,0.00105915,-0.00058469,0.00056
 197,0.00017140,-0.00053720,-0.00015344,0.00195567,0.00932272,0.0021113
 2,0.00895160,-0.00049987,-0.00001592,-0.00148133,-0.00026584,0.0000430
 6,-0.00117332,0.00053495,-0.00051030,-0.00260487,-0.00182225,-0.001271
 72,-0.16662857,0.03346402,0.59434336,0.02996919,0.00324794,-0.00053261
 ,-0.01296129,-0.03162161,0.00986947,-0.00424697,0.00118500,-0.00296561
 ,-0.00178046,-0.00049105,-0.00167269,-0.00154773,-0.00065553,-0.000546
 65,-0.03106830,0.04093527,0.01654856,0.06052091,0.01418246,0.00165622,
 -0.00095430,0.00038554,-0.00227502,0.00120884,-0.00072597,-0.00045570,
 -0.01403142,-0.00441260,-0.00899733,-0.07395677,0.04179136,0.00946961,
 0.14835297,0.04994057,-0.00226028,-0.00081783,-0.01034539,-0.03881034,
 0.01236957,-0.00547351,-0.00079191,-0.00341857,0.00008040,-0.00128853,
 -0.00016900,-0.00228921,0.00023205,0.00048414,-0.02195187,0.03806255,0
 .01585195,0.06807901,-0.00819300,0.00560287,-0.00240436,0.00003652,0.0
 0026633,-0.00452442,0.00057694,-0.00446482,-0.00865442,-0.00053918,-0.
 00631222,-0.04181053,-0.33448771,-0.01419196,-0.11426862,0.61608511,0.
 00895062,0.00049903,-0.00001611,0.00195448,-0.00932241,0.00211197,-0.0
 0260525,0.00182307,-0.00127245,-0.00117349,-0.00053483,-0.00051037,-0.
 00148131,0.00026601,0.00004307,-0.00713350,0.01258036,0.00704646,0.021
 32611,0.00306428,-0.01737423,0.00017084,0.00053730,-0.00015313,0.00105
 951,0.00058405,0.00056244,-0.01046368,-0.00295354,-0.00454180,0.009470
 22,0.01419271,-0.10421569,-0.16662949,-0.03345278,0.59436405,-0.013543
 57,-0.00034855,0.00330339,0.00109423,0.00328577,-0.00250528,-0.0003019
 9,-0.00021585,0.00015838,0.00078995,-0.00055807,-0.00017838,0.00076090
 ,0.00003608,0.00007159,0.00102456,-0.00533977,-0.00179013,-0.00691025,
 -0.00041453,0.00057868,0.00021115,0.00008051,0.00025867,0.00026905,-0.
 00059724,-0.00016469,0.00084307,0.00033895,0.00125794,-0.08412456,-0.0
 7758369,0.11098091,0.00601855,0.01115648,0.00021502,0.09220371,0.00373
 821,0.00055623,0.00017584,-0.00043157,-0.00223472,0.00056470,0.0001785
 6,0.00027269,-0.00079583,0.00025054,0.00043036,-0.00044385,-0.00014687
 ,-0.00034900,-0.00010315,0.00065641,0.00155232,-0.00071790,-0.00192572
 ,-0.00165873,0.00017423,-0.00016059,0.00006187,0.00018475,0.00035836,0
 .00031823,-0.00029339,0.00003129,-0.00011971,0.00082292,-0.06791840,-0
 .12207264,0.10167489,-0.01317715,-0.01286887,0.02447645,0.07073760,0.1
 3044682,-0.00880024,-0.00150973,0.00115599,0.00027859,0.00303701,-0.00
 174029,-0.00040805,-0.00003909,0.00148200,0.00005621,-0.00013709,0.000
 19833,-0.00007884,-0.00000024,0.00028236,0.00007665,-0.00087033,0.0006
 9047,-0.00153285,-0.00141209,-0.00103417,0.00038187,0.00022461,-0.0001
 4400,0.00023865,0.00019061,0.00000865,0.00020734,0.00009442,0.00043731
 ,0.10767213,0.10025590,-0.21473734,0.00053481,0.00005403,0.00382255,-0
 .10920449,-0.11297854,0.22234257,-0.01616554,0.00030818,-0.00955053,0.
 00449910,0.00601081,-0.00248013,0.00041259,-0.00045041,0.00212227,0.00
 069136,0.00007731,0.00039024,0.00089197,0.00035265,-0.00046034,0.00097
 449,-0.00641753,-0.00163437,-0.00587632,-0.00088389,0.00111977,0.00001
 685,-0.00045105,-0.00025968,0.00017928,0.00043997,-0.00010064,0.000878
 21,-0.00059274,-0.00048556,-0.02905856,0.00093913,0.03341877,0.0076492
 9,0.00582950,0.00193669,0.00094139,0.00821963,0.01148797,0.03494440,0.
 00421484,0.00106951,0.00252328,-0.00220870,-0.00113484,0.00143602,-0.0
 0028113,0.00001019,-0.00044945,0.00065431,0.00041192,-0.00017296,-0.00
 010878,0.00003245,-0.00001005,0.00029378,0.00009910,-0.00096085,-0.000
 91340,-0.00114921,0.00086626,-0.00003013,-0.00051924,-0.00014473,0.000
 12641,0.00090627,-0.00022338,0.00068625,0.00000737,0.00055230,0.008569
 21,-0.11947285,-0.11830974,0.00428638,-0.01419952,-0.02838390,-0.00078
 220,0.00980631,0.01226308,-0.01404675,0.12900348,-0.00363551,0.0004795
 0,-0.00205359,0.00230957,0.00230656,0.00047999,-0.00030457,0.00040203,
 0.00072807,0.00087387,0.00036061,-0.00050677,0.00032645,0.00042275,-0.
 00012557,0.00005202,-0.00336965,-0.00093532,-0.00141238,0.00039221,0.0
 0081161,0.00018399,-0.00020062,-0.00000650,-0.00012104,0.00000174,-0.0
 0017583,0.00098166,0.00007929,0.00006772,0.03577998,-0.12336548,-0.269
 16322,0.00254243,0.00509951,0.00402978,-0.00075490,-0.01214033,-0.0157
 9613,-0.03544405,0.13038588,0.27964628,-0.00587631,0.00088422,0.001119
 61,0.00097514,0.00641664,-0.00163442,0.00087821,0.00059280,-0.00048550
 ,0.00017938,-0.00043998,-0.00010052,0.00001690,0.00045104,-0.00025964,
 0.00449896,-0.00601079,-0.00248006,-0.01616541,-0.00030672,-0.00955002
 ,0.00089167,-0.00035281,-0.00046053,0.00069116,-0.00007706,0.00039025,
 0.00041302,0.00045044,0.00212263,0.00764847,-0.00583157,0.00193854,-0.
 02906044,-0.00094652,0.03342937,0.00408082,-0.00141888,0.00123734,-0.0
 0505929,0.00075339,-0.00129779,0.03494690,0.00091390,-0.00114957,-0.00
 086600,-0.00029345,0.00009841,0.00096093,-0.00068609,0.00000734,-0.000
 55226,-0.00012624,0.00090637,0.00022336,0.00003013,-0.00051930,0.00014
 472,0.00220852,-0.00113459,-0.00143561,-0.00421363,0.00106955,-0.00252
 204,0.00010869,0.00003249,0.00001000,-0.00065451,0.00041194,0.00017285
 ,0.00028136,0.00001020,0.00044911,-0.00428876,-0.01419961,0.02838267,-
 0.00857707,-0.11947019,0.11830636,0.00121262,-0.00553319,0.00009235,-0
 .00075289,0.00066222,-0.00072002,0.01405465,0.12900044,-0.00141217,-0.
 00039231,0.00081150,0.00005233,0.00336897,-0.00093544,0.00098188,-0.00
 007955,0.00006797,-0.00012107,-0.00000162,-0.00017578,0.00018395,0.000
 20064,-0.00000646,0.00230946,-0.00230608,0.00048007,-0.00363568,-0.000
 47970,-0.00205384,0.00032652,-0.00042287,-0.00012567,0.00087365,-0.000
 36054,-0.00050675,-0.00030434,-0.00040185,0.00072835,0.00254220,-0.005
 10013,0.00402971,0.03579167,0.12336306,-0.26916465,-0.00007971,0.00013
 399,0.00235005,-0.00129785,0.00072020,0.00064446,-0.03545621,-0.130382
 64,0.27965212,-0.00691027,0.00041458,0.00057857,0.00102503,0.00533959,
 -0.00179029,0.00084276,-0.00033858,0.00125794,0.00026920,0.00059727,-0
 .00016465,0.00021105,-0.00008044,0.00025873,0.00109341,-0.00328519,-0.
 00250489,-0.01354191,0.00034884,0.00330284,0.00076084,-0.00003621,0.00
 007141,0.00078992,0.00055748,-0.00017851,-0.00030126,0.00021616,0.0001
 5908,0.00601929,-0.01115848,0.00021293,-0.08411208,0.07758292,0.110973
 89,-0.00335685,0.00100857,-0.00214709,0.00408080,-0.00121346,-0.000079
 74,0.00094083,0.00078277,-0.00075462,0.09218924,0.00192649,-0.00165910
 ,-0.00017407,-0.00065600,0.00155197,0.00071806,-0.00003084,-0.00011988
 ,-0.00082299,-0.00035837,0.00031826,0.00029340,0.00016057,0.00006189,-
 0.00018482,0.00043159,-0.00223490,-0.00056445,-0.00373683,0.00055654,-
 0.00017567,0.00014685,-0.00034896,0.00010313,-0.00025082,0.00042996,0.
 00044367,-0.00017802,0.00027291,0.00079570,0.01317437,-0.01286956,-0.0
 2447682,0.06791566,-0.12208360,-0.10168219,-0.00100810,0.00139205,0.00
 073510,0.00141809,-0.00553317,-0.00013397,-0.00821886,0.00980751,0.012
 14045,-0.07073580,0.13045812,-0.00153286,0.00141227,-0.00103446,0.0000
 7648,0.00087059,0.00069042,0.00020711,-0.00009413,0.00043737,0.0002386
 8,-0.00019062,0.00000863,0.00038188,-0.00022466,-0.00014398,0.00027807
 ,-0.00303741,-0.00174045,-0.00879869,0.00151050,0.00115653,-0.00007865
 ,0.00000024,0.00028230,0.00005621,0.00013702,0.00019822,-0.00040709,0.
 00003935,0.00148190,0.00053468,-0.00005383,0.00382291,0.10766234,-0.10
 026425,-0.21473193,-0.00214700,-0.00073478,0.00068065,0.00123746,-0.00
 009197,0.00235000,0.01148696,-0.01226381,-0.01579563,-0.10919558,0.112
 98550,0.22233751\\0.00000109,-0.00000237,-0.00000033,-0.00000169,0.000
 00116,0.00000108,0.00000297,-0.00000103,0.00000217,0.00000025,0.000001
 21,0.00000005,0.00000015,0.00000059,-0.00000037,-0.00000202,-0.0000008
 3,0.00000113,0.00000137,0.00000146,-0.00000042,0.00000017,-0.00000057,
 -0.00000050,0.00000034,-0.00000166,0.00000052,0.00000436,0.00000239,0.
 00000314,-0.00000097,-0.00000048,-0.00000196,-0.00000113,0.00000087,-0
 .00000064,-0.00000141,0.00000018,-0.00000065,-0.00000070,-0.00000017,-
 0.00000047,-0.00000086,0.00000012,-0.00000076,-0.00000191,-0.00000087,
 -0.00000201\\\@


 ACHIEVEMENT--  THE MAN WHO ROWS THE BOAT GENERALLY 
                DOESN'T HAVE TIME TO ROCK IT.

                   -- FROM THE BACK OF A SUGAR PACKET
 Job cpu time:       0 days  0 hours  0 minutes  0.6 seconds.
 Elapsed time:       0 days  0 hours  0 minutes  7.6 seconds.
 File lengths (MBytes):  RWF=     22 Int=      0 D2E=      0 Chk=      2 Scr=      2
 Normal termination of Gaussian 16 at Mon May 26 08:21:18 2025.
