 Entering Gaussian System, Link 0=/mlatom/software/Gaussian/g16-avx2/g16
 Input=gaussian.com
 Output=gaussian.log
 Initial command:
 /mlatom/software/Gaussian/g16-avx2/l1.exe "/mlatom/home/huangyh/projects/delta_learning/paper/revision1/Starting_from_ub3lyp_d4/da/b3lyp/b3lyp/ts/irc/Gau-107708.inp" -scrdir="/mlatom/home/huangyh/projects/delta_learning/paper/revision1/Starting_from_ub3lyp_d4/da/b3lyp/b3lyp/ts/irc/"
 Entering Link 1 = /mlatom/software/Gaussian/g16-avx2/l1.exe PID=    107709.
  
 Copyright (c) 1988,1990,1992,1993,1995,1998,2003,2009,2016,
            Gaussian, Inc.  All Rights Reserved.
  
 This is part of the Gaussian(R) 16 program.  It is based on
 the Gaussian(R) 09 system (copyright 2009, Gaussian, Inc.),
 the Gaussian(R) 03 system (copyright 2003, Gaussian, Inc.),
 the Gaussian(R) 98 system (copyright 1998, Gaussian, Inc.),
 the Gaussian(R) 94 system (copyright 1995, Gaussian, Inc.),
 the Gaussian 92(TM) system (copyright 1992, Gaussian, Inc.),
 the Gaussian 90(TM) system (copyright 1990, Gaussian, Inc.),
 the Gaussian 88(TM) system (copyright 1988, Gaussian, Inc.),
 the Gaussian 86(TM) system (copyright 1986, Carnegie Mellon
 University), and the Gaussian 82(TM) system (copyright 1983,
 Carnegie Mellon University). Gaussian is a federally registered
 trademark of Gaussian, Inc.
  
 This software contains proprietary and confidential information,
 including trade secrets, belonging to Gaussian, Inc.
  
 This software is provided under written license and may be
 used, copied, transmitted, or stored only in accord with that
 written license.
  
 The following legend is applicable only to US Government
 contracts under FAR:
  
                    RESTRICTED RIGHTS LEGEND
  
 Use, reproduction and disclosure by the US Government is
 subject to restrictions as set forth in subparagraphs (a)
 and (c) of the Commercial Computer Software - Restricted
 Rights clause in FAR 52.227-19.
  
 Gaussian, Inc.
 340 Quinnipiac St., Bldg. 40, Wallingford CT 06492
  
  
 ---------------------------------------------------------------
 Warning -- This program may not be used in any manner that
 competes with the business of Gaussian, Inc. or will provide
 assistance to any competitor of Gaussian, Inc.  The licensee
 of this program is prohibited from giving any competitor of
 Gaussian, Inc. access to this program.  By using this program,
 the user acknowledges that Gaussian, Inc. is engaged in the
 business of creating and licensing software in the field of
 computational chemistry and represents and warrants to the
 licensee that it is not a competitor of Gaussian, Inc. and that
 it will not use this program in any manner prohibited above.
 ---------------------------------------------------------------
  

 Cite this work as:
 Gaussian 16, Revision A.03,
 M. J. Frisch, G. W. Trucks, H. B. Schlegel, G. E. Scuseria, 
 M. A. Robb, J. R. Cheeseman, G. Scalmani, V. Barone, 
 G. A. Petersson, H. Nakatsuji, X. Li, M. Caricato, A. V. Marenich, 
 J. Bloino, B. G. Janesko, R. Gomperts, B. Mennucci, H. P. Hratchian, 
 J. V. Ortiz, A. F. Izmaylov, J. L. Sonnenberg, D. Williams-Young, 
 F. Ding, F. Lipparini, F. Egidi, J. Goings, B. Peng, A. Petrone, 
 T. Henderson, D. Ranasinghe, V. G. Zakrzewski, J. Gao, N. Rega, 
 G. Zheng, W. Liang, M. Hada, M. Ehara, K. Toyota, R. Fukuda, 
 J. Hasegawa, M. Ishida, T. Nakajima, Y. Honda, O. Kitao, H. Nakai, 
 T. Vreven, K. Throssell, J. A. Montgomery, Jr., J. E. Peralta, 
 F. Ogliaro, M. J. Bearpark, J. J. Heyd, E. N. Brothers, K. N. Kudin, 
 V. N. Staroverov, T. A. Keith, R. Kobayashi, J. Normand, 
 K. Raghavachari, A. P. Rendell, J. C. Burant, S. S. Iyengar, 
 J. Tomasi, M. Cossi, J. M. Millam, M. Klene, C. Adamo, R. Cammi, 
 J. W. Ochterski, R. L. Martin, K. Morokuma, O. Farkas, 
 J. B. Foresman, and D. J. Fox, Gaussian, Inc., Wallingford CT, 2016.
 
 ******************************************
 Gaussian 16:  ES64L-G16RevA.03 25-Dec-2016
                25-May-2025 
 ******************************************
 %nproc=1
 Will use up to    1 processors via shared memory.
 ----------------------------------------------------------------------
 #p irc(CalcFC) external='/mlatom/software/miniconda3/bin/python /mlato
 m/software/mlatom_xacs/mlatom/interfaces/gaussian_interface.py model_p
 redict_kwargs'
 ----------------------------------------------------------------------
 1/6=10,10=4,18=10,26=1,38=1,44=3,172=1/1,23;
 2/12=2,17=6,18=5,29=1,40=1/2;
 3/11=9,25=1,30=1,41=9900000,43=2,71=2,140=1/1;
 4/20=17,22=1002,24=3,113=1,114=1/2;
 6/7=2,8=2,9=2,10=2/1;
 7/25=1,44=-1/16;
 1/6=10,10=4,18=10,26=1,44=3/23(2);
 2/29=1/2;
 99/5=20/99;
 2/29=1/2;
 3/11=9,25=1,30=1,41=9900000,43=2,71=2,140=1/1;
 4/16=2,20=17,22=1002,24=3,113=1,114=1/2;
 7/44=-1/16;
 1/6=10,18=10,26=1,44=3/23(-4);
 2/29=1/2;
 6/7=2,8=2,9=2,10=2/1;
 99/5=20/99;
 Leave Link    1 at Sun May 25 22:24:40 2025, MaxMem=           0 cpu:               0.0 elap:               0.1
 (Enter /mlatom/software/Gaussian/g16-avx2/l101.exe)
 ------------------------------------
 2ed2a0b9-d3c8-4de2-977e-9dac85925f0d
 ------------------------------------
 Symbolic Z-matrix:
 Charge =  0 Multiplicity = 1
 C                    -0.44695   1.43699   0.48979 
 C                    -1.32267   0.70358  -0.29001 
 H                    -0.1264    1.06772   1.45721 
 H                    -0.39403   2.51738   0.3795 
 H                    -1.8702    1.21351  -1.08137 
 C                    -1.32263  -0.70363  -0.29 
 C                    -0.44687  -1.437     0.48981 
 H                    -1.87014  -1.2136   -1.08136 
 H                    -0.39391  -2.51739   0.37953 
 H                    -0.12634  -1.06771   1.45723 
 C                     1.57643   0.69306  -0.22737 
 C                     1.57644  -0.69301  -0.2274 
 H                     2.07552   1.23575   0.57038 
 H                     1.47371   1.23604  -1.16015 
 H                     1.47373  -1.23595  -1.1602 
 H                     2.07556  -1.23571   0.57032 
 
 ITRead=  0  0  0  0  0  0  0  0  0  0  0  0  0  0  0  0
 MicOpt= -1 -1 -1 -1 -1 -1 -1 -1 -1 -1 -1 -1 -1 -1 -1 -1
 NAtoms=     16 NQM=       16 NQMF=       0 NMMI=      0 NMMIF=      0
                NMic=       0 NMicF=      0.
                    Isotopes and Nuclear Properties:
 (Nuclear quadrupole moments (NQMom) in fm**2, nuclear magnetic moments (NMagM)
  in nuclear magnetons)

  Atom         1           2           3           4           5           6           7           8           9          10
 IAtWgt=          12          12           1           1           1          12          12           1           1           1
 AtmWgt=  12.0000000  12.0000000   1.0078250   1.0078250   1.0078250  12.0000000  12.0000000   1.0078250   1.0078250   1.0078250
 NucSpn=           0           0           1           1           1           0           0           1           1           1
 AtZEff=  -0.0000000  -0.0000000  -0.0000000  -0.0000000  -0.0000000  -0.0000000  -0.0000000  -0.0000000  -0.0000000  -0.0000000
 NQMom=    0.0000000   0.0000000   0.0000000   0.0000000   0.0000000   0.0000000   0.0000000   0.0000000   0.0000000   0.0000000
 NMagM=    0.0000000   0.0000000   2.7928460   2.7928460   2.7928460   0.0000000   0.0000000   2.7928460   2.7928460   2.7928460
 AtZNuc=   6.0000000   6.0000000   1.0000000   1.0000000   1.0000000   6.0000000   6.0000000   1.0000000   1.0000000   1.0000000

  Atom        11          12          13          14          15          16
 IAtWgt=          12          12           1           1           1           1
 AtmWgt=  12.0000000  12.0000000   1.0078250   1.0078250   1.0078250   1.0078250
 NucSpn=           0           0           1           1           1           1
 AtZEff=  -0.0000000  -0.0000000  -0.0000000  -0.0000000  -0.0000000  -0.0000000
 NQMom=    0.0000000   0.0000000   0.0000000   0.0000000   0.0000000   0.0000000
 NMagM=    0.0000000   0.0000000   2.7928460   2.7928460   2.7928460   2.7928460
 AtZNuc=   6.0000000   6.0000000   1.0000000   1.0000000   1.0000000   1.0000000
 Leave Link  101 at Sun May 25 22:24:40 2025, MaxMem=   104857600 cpu:               0.1 elap:               0.2
 (Enter /mlatom/software/Gaussian/g16-avx2/l123.exe)
 IRC-IRC-IRC-IRC-IRC-IRC-IRC-IRC-IRC-IRC-IRC-IRC-IRC-IRC-IRC-IRC-IRC-IRC
 ------------------------------------------------------------------------
 INPUT DATA FOR L123
 ------------------------------------------------------------------------
 GENERAL PARAMETERS:
 Follow reaction path in both directions.
 Maximum points per path      =  10
 Step size                    =   0.100 bohr
 Integration scheme           = HPC                                 
    Redo corrector integration= Yes                                 
    DWI Weight Power          =  2
    DWI will use Hessian update vectors when possible.
    Max correction cycles     =  10
 Initial Hessian              = CalcFC
 Hessian evaluation           = All updating
 Hessian updating method      = Bofill                              
 ------------------------------------------------------------------------
 IRC-IRC-IRC-IRC-IRC-IRC-IRC-IRC-IRC-IRC-IRC-IRC-IRC-IRC-IRC-IRC-IRC-IRC
 Leave Link  123 at Sun May 25 22:24:40 2025, MaxMem=   104857600 cpu:               0.0 elap:               0.0
 (Enter /mlatom/software/Gaussian/g16-avx2/l202.exe)
                          Input orientation:                          
 ---------------------------------------------------------------------
 Center     Atomic      Atomic             Coordinates (Angstroms)
 Number     Number       Type             X           Y           Z
 ---------------------------------------------------------------------
      1          6           0       -0.446946    1.436991    0.489791
      2          6           0       -1.322669    0.703576   -0.290007
      3          1           0       -0.126396    1.067722    1.457215
      4          1           0       -0.394030    2.517383    0.379496
      5          1           0       -1.870202    1.213506   -1.081374
      6          6           0       -1.322634   -0.703632   -0.290000
      7          6           0       -0.446872   -1.436995    0.489807
      8          1           0       -1.870141   -1.213598   -1.081360
      9          1           0       -0.393911   -2.517387    0.379530
     10          1           0       -0.126337   -1.067714    1.457232
     11          6           0        1.576430    0.693061   -0.227373
     12          6           0        1.576442   -0.693007   -0.227400
     13          1           0        2.075518    1.235747    0.570383
     14          1           0        1.473709    1.236038   -1.160152
     15          1           0        1.473725   -1.235946   -1.160203
     16          1           0        2.075561   -1.235710    0.570321
 ---------------------------------------------------------------------
                    Distance matrix (angstroms):
                    1          2          3          4          5
     1  C    0.000000
     2  C    1.383067   0.000000
     3  H    1.083984   2.148594   0.000000
     4  H    1.087296   2.144878   1.826095   0.000000
     5  H    2.131704   1.089074   3.083268   2.452207   0.000000
     6  C    2.440731   1.407208   2.760695   3.418401   2.145116
     7  C    2.873986   2.440733   2.704106   3.956269   3.394058
     8  H    3.394057   2.145116   3.832679   4.270038   2.427104
     9  H    3.956270   3.418402   3.753129   5.034770   4.270039
    10  H    2.704123   2.760711   2.135436   3.753145   3.832694
    11  C    2.271961   2.899794   2.424422   2.753026   3.588795
    12  C    3.024129   3.218572   2.972836   3.815454   4.030312
    13  H    2.531763   3.545582   2.379734   2.788852   4.277558
    14  H    2.540002   2.976641   3.072340   2.738760   3.344914
    15  H    3.681854   3.512664   3.836424   4.466169   4.145827
    16  H    3.675984   4.006115   3.307718   4.496777   4.929077
                    6          7          8          9         10
     6  C    0.000000
     7  C    1.383069   0.000000
     8  H    1.089073   2.131706   0.000000
     9  H    2.144878   1.087296   2.452207   0.000000
    10  H    2.148604   1.083984   3.083275   1.826085   0.000000
    11  C    3.218578   3.024108   4.030322   3.815436   2.972816
    12  C    2.899771   2.271938   3.588760   2.753002   2.424427
    13  H    4.006107   3.675935   4.929075   4.496724   3.307659
    14  H    3.512694   3.681861   4.145872   4.466187   3.836420
    15  H    2.976615   2.540009   3.344871   2.738784   3.072371
    16  H    3.545558   2.531731   4.277511   2.788797   2.379745
                   11         12         13         14         15
    11  C    0.000000
    12  C    1.386068   0.000000
    13  H    1.086283   2.146073   0.000000
    14  H    1.084183   2.145179   1.832191   0.000000
    15  H    2.145178   1.084183   3.076743   2.471984   0.000000
    16  H    2.146067   1.086281   2.471458   3.076736   1.832190
                   16
    16  H    0.000000
 Symmetry turned off by external request.
 Stoichiometry    C6H10
 Framework group  C1[X(C6H10)]
 Deg. of freedom    42
 Full point group                 C1      NOp   1
 Rotational constants (GHZ):           4.3407502           3.4585119           2.2558698
 Leave Link  202 at Sun May 25 22:24:41 2025, MaxMem=   104857600 cpu:               0.0 elap:               0.1
 (Enter /mlatom/software/Gaussian/g16-avx2/l301.exe)
 Standard basis: STO-3G (5D, 7F)
 Ernie: Thresh=  0.10000D-02 Tol=  0.10000D-05 Strict=F.
    40 basis functions,   120 primitive gaussians,    40 cartesian basis functions
    23 alpha electrons       23 beta electrons
       nuclear repulsion energy       223.9905785063 Hartrees.
 IExCor=    0 DFT=F Ex=HF Corr=None ExCW=0 ScaHFX=  1.000000
 ScaDFX=  1.000000  1.000000  1.000000  1.000000 ScalE2=  1.000000  1.000000
 IRadAn=      5 IRanWt=     -1 IRanGd=            0 ICorTp=0 IEmpDi=  4
 NAtoms=   16 NActive=   16 NUniq=   16 SFac= 1.00D+00 NAtFMM=   60 NAOKFM=F Big=F
 Integral buffers will be    131072 words long.
 Raffenetti 1 integral format.
 Two-electron integral symmetry is turned off.
 Leave Link  301 at Sun May 25 22:24:41 2025, MaxMem=   104857600 cpu:               0.0 elap:               0.1
 (Enter /mlatom/software/Gaussian/g16-avx2/l402.exe)
 External calculation of energy, first and second derivatives.
 Running external command "/mlatom/software/miniconda3/bin/python /mlatom/software/mlatom_xacs/mlatom/interfaces/gaussian_interface.py model_predict_kwargs R"
         input file       "/mlatom/home/huangyh/projects/delta_learning/paper/revision1/Starting_from_ub3lyp_d4/da/b3lyp/b3lyp/ts/irc/Gau-107709.EIn"
         output file      "/mlatom/home/huangyh/projects/delta_learning/paper/revision1/Starting_from_ub3lyp_d4/da/b3lyp/b3lyp/ts/irc/Gau-107709.EOu"
         message file     "/mlatom/home/huangyh/projects/delta_learning/paper/revision1/Starting_from_ub3lyp_d4/da/b3lyp/b3lyp/ts/irc/Gau-107709.EMs"
         fchk file        "/mlatom/home/huangyh/projects/delta_learning/paper/revision1/Starting_from_ub3lyp_d4/da/b3lyp/b3lyp/ts/irc/Gau-107709.EFC"
         mat. el file     "/mlatom/home/huangyh/projects/delta_learning/paper/revision1/Starting_from_ub3lyp_d4/da/b3lyp/b3lyp/ts/irc/Gau-107709.EUF"
 Recovered energy= -234.543885600     dipole=     -0.394700000000      0.000000000000      0.006500000000
 NRF= 0 NRA=   0 NVA=   0 HaveQM=F NVQ=       0
 Convergence limit is  0.750E-04 MaxStp= 10000 StMxLn= 3.00D-04 StpMin= 1.00D-06.
 Convergence criteria             0.00011250 0.00007500 0.00045000 0.00030000
  Step  NS  ND Rises OKQ   Scale  Max. Force  RMS Force Max. Disp.  RMS Disp.     Energy   Flag
     1   0   0   F    T  1.00D+00 0.00000000 0.00000000 0.00000000 0.00000000 -234.5438856 ====
 Running external command "/mlatom/software/miniconda3/bin/python /mlatom/software/mlatom_xacs/mlatom/interfaces/gaussian_interface.py model_predict_kwargs R"
         input file       "/mlatom/home/huangyh/projects/delta_learning/paper/revision1/Starting_from_ub3lyp_d4/da/b3lyp/b3lyp/ts/irc/Gau-107709.EIn"
         output file      "/mlatom/home/huangyh/projects/delta_learning/paper/revision1/Starting_from_ub3lyp_d4/da/b3lyp/b3lyp/ts/irc/Gau-107709.EOu"
         message file     "/mlatom/home/huangyh/projects/delta_learning/paper/revision1/Starting_from_ub3lyp_d4/da/b3lyp/b3lyp/ts/irc/Gau-107709.EMs"
         fchk file        "/mlatom/home/huangyh/projects/delta_learning/paper/revision1/Starting_from_ub3lyp_d4/da/b3lyp/b3lyp/ts/irc/Gau-107709.EFC"
         mat. el file     "/mlatom/home/huangyh/projects/delta_learning/paper/revision1/Starting_from_ub3lyp_d4/da/b3lyp/b3lyp/ts/irc/Gau-107709.EUF"
 Recovered energy= -234.543885600     dipole=     -0.394700000000      0.000000000000      0.006500000000
 Energy=    -234.543886     NIter=   0.
 Dipole moment=      -0.394700       0.000000       0.006500
 Leave Link  402 at Sun May 25 22:25:21 2025, MaxMem=   104857600 cpu:               0.1 elap:              40.7
 (Enter /mlatom/software/Gaussian/g16-avx2/l601.exe)
 Leave Link  601 at Sun May 25 22:25:22 2025, MaxMem=   104857600 cpu:               0.1 elap:               0.3
 (Enter /mlatom/software/Gaussian/g16-avx2/l716.exe)
 Dipole        =-3.94700000D-01 0.00000000D+00 6.50000000D-03
 -------------------------------------------------------------------
 Center     Atomic                   Forces (Hartrees/Bohr)
 Number     Number              X              Y              Z
 -------------------------------------------------------------------
      1        6           0.000022284    0.000016134    0.000001488
      2        6          -0.000009329   -0.000016682   -0.000010494
      3        1          -0.000003462    0.000005249    0.000003585
      4        1           0.000001760    0.000001320   -0.000000107
      5        1          -0.000003772    0.000000655    0.000003211
      6        6          -0.000008821    0.000016611   -0.000008590
      7        6           0.000021724   -0.000017713    0.000000261
      8        1          -0.000003792   -0.000000846    0.000003311
      9        1           0.000001625   -0.000001316   -0.000000931
     10        1          -0.000003768   -0.000003611    0.000003259
     11        6          -0.000010070    0.000026771    0.000002892
     12        6          -0.000010242   -0.000025253    0.000003134
     13        1          -0.000000042   -0.000000037    0.000000083
     14        1           0.000002721    0.000001015   -0.000001267
     15        1           0.000002603   -0.000001104   -0.000001101
     16        1           0.000000579   -0.000001195    0.000001267
 -------------------------------------------------------------------
 Cartesian Forces:  Max     0.000026771 RMS     0.000009355
 Z-matrix is all fixed cartesians, so copy forces.
 Leave Link  716 at Sun May 25 22:25:22 2025, MaxMem=   104857600 cpu:               0.0 elap:               0.1
 (Enter /mlatom/software/Gaussian/g16-avx2/l123.exe)
 IRC-IRC-IRC-IRC-IRC-IRC-IRC-IRC-IRC-IRC-IRC-IRC-IRC-IRC-IRC-IRC-IRC-IRC
          ******** Start new reaction path calculation ********
 Current Structure is TS -> form Hessian eigenvectors.
                            Diagonalizing Hessian.
 Supplied step size of   0.1000 bohr.
    Integration on MW PES will use step size of   0.2867 sqrt(amu)*bohr.
 Point Number:   0          Path Number:   1
 Calculating another point on the path.
 Point Number  1 in FORWARD path direction.
 Using LQA Reaction Path Following.
 IRC-IRC-IRC-IRC-IRC-IRC-IRC-IRC-IRC-IRC-IRC-IRC-IRC-IRC-IRC-IRC-IRC-IRC
 Leave Link  123 at Sun May 25 22:25:22 2025, MaxMem=   104857600 cpu:               0.0 elap:               0.3
 (Enter /mlatom/software/Gaussian/g16-avx2/l202.exe)
                          Input orientation:                          
 ---------------------------------------------------------------------
 Center     Atomic      Atomic             Coordinates (Angstroms)
 Number     Number       Type             X           Y           Z
 ---------------------------------------------------------------------
      1          6           0       -0.400004    1.430749    0.488144
      2          6           0       -1.294328    0.699950   -0.287267
      3          1           0       -0.107799    1.069770    1.468776
      4          1           0       -0.353501    2.512022    0.380136
      5          1           0       -1.846972    1.214046   -1.072392
      6          6           0       -1.294293   -0.700005   -0.287259
      7          6           0       -0.399929   -1.430752    0.488160
      8          1           0       -1.846911   -1.214138   -1.072379
      9          1           0       -0.353382   -2.512024    0.380169
     10          1           0       -0.107739   -1.069762    1.468792
     11          6           0        1.584389    0.698570   -0.216865
     12          6           0        1.584401   -0.698516   -0.216892
     13          1           0        2.108172    1.233236    0.571202
     14          1           0        1.508295    1.234014   -1.157311
     15          1           0        1.508310   -1.233922   -1.157361
     16          1           0        2.108216   -1.233196    0.571140
 ---------------------------------------------------------------------
                    Distance matrix (angstroms):
                    1          2          3          4          5
     1  C    0.000000
     2  C    1.391095   0.000000
     3  H    1.085048   2.151350   0.000000
     4  H    1.087648   2.148066   1.823622   0.000000
     5  H    2.139147   1.089097   3.082706   2.454594   0.000000
     6  C    2.437441   1.399955   2.761075   3.412861   2.141374
     7  C    2.861501   2.437442   2.701769   3.944526   3.394733
     8  H    3.394731   2.141374   3.833825   4.268997   2.428184
     9  H    3.944527   3.412862   3.751617   5.024046   4.268998
    10  H    2.701785   2.761090   2.139531   3.751632   3.833840
    11  C    2.229561   2.879578   2.417163   2.720374   3.573777
    12  C    2.994781   3.201209   2.971844   3.797296   4.020460
    13  H    2.517312   3.549418   2.396433   2.780581   4.283099
    14  H    2.527416   2.982766   3.087891   2.731909   3.356400
    15  H    3.667399   3.514498   3.849078   4.456717   4.154236
    16  H    3.659872   4.006398   3.319658   4.485888   4.932921
                    6          7          8          9         10
     6  C    0.000000
     7  C    1.391098   0.000000
     8  H    1.089097   2.139149   0.000000
     9  H    2.148066   1.087649   2.454594   0.000000
    10  H    2.151360   1.085048   3.082712   1.823613   0.000000
    11  C    3.201215   2.994760   4.020470   3.797278   2.971823
    12  C    2.879555   2.229537   3.573742   2.720349   2.417167
    13  H    4.006388   3.659822   4.932918   4.485835   3.319598
    14  H    3.514530   3.667406   4.154283   4.456735   3.849073
    15  H    2.982738   2.527421   3.356355   2.731930   3.087919
    16  H    3.549396   2.517282   4.283054   2.780529   2.396445
                   11         12         13         14         15
    11  C    0.000000
    12  C    1.397086   0.000000
    13  H    1.086861   2.151068   0.000000
    14  H    1.084864   2.150547   1.829648   0.000000
    15  H    2.150545   1.084864   3.071584   2.467936   0.000000
    16  H    2.151062   1.086858   2.466432   3.071576   1.829646
                   16
    16  H    0.000000
 Symmetry turned off by external request.
 Stoichiometry    C6H10
 Framework group  C1[X(C6H10)]
 Deg. of freedom    42
 Full point group                 C1      NOp   1
 Rotational constants (GHZ):           4.3624533           3.5063853           2.2790898
 Leave Link  202 at Sun May 25 22:25:22 2025, MaxMem=   104857600 cpu:               0.0 elap:               0.1
 (Enter /mlatom/software/Gaussian/g16-avx2/l301.exe)
 Standard basis: STO-3G (5D, 7F)
 Ernie: Thresh=  0.10000D-02 Tol=  0.10000D-05 Strict=F.
    40 basis functions,   120 primitive gaussians,    40 cartesian basis functions
    23 alpha electrons       23 beta electrons
       nuclear repulsion energy       224.4950716734 Hartrees.
 IExCor=    0 DFT=F Ex=HF Corr=None ExCW=0 ScaHFX=  1.000000
 ScaDFX=  1.000000  1.000000  1.000000  1.000000 ScalE2=  1.000000  1.000000
 IRadAn=      5 IRanWt=     -1 IRanGd=            0 ICorTp=0 IEmpDi=  4
 NAtoms=   16 NActive=   16 NUniq=   16 SFac= 1.00D+00 NAtFMM=   60 NAOKFM=F Big=F
 Integral buffers will be    131072 words long.
 Raffenetti 1 integral format.
 Two-electron integral symmetry is turned off.
 Leave Link  301 at Sun May 25 22:25:23 2025, MaxMem=   104857600 cpu:               0.1 elap:               0.1
 (Enter /mlatom/software/Gaussian/g16-avx2/l402.exe)
 External calculation of energy and first derivatives.
 Running external command "/mlatom/software/miniconda3/bin/python /mlatom/software/mlatom_xacs/mlatom/interfaces/gaussian_interface.py model_predict_kwargs R"
         input file       "/mlatom/home/huangyh/projects/delta_learning/paper/revision1/Starting_from_ub3lyp_d4/da/b3lyp/b3lyp/ts/irc/Gau-107709.EIn"
         output file      "/mlatom/home/huangyh/projects/delta_learning/paper/revision1/Starting_from_ub3lyp_d4/da/b3lyp/b3lyp/ts/irc/Gau-107709.EOu"
         message file     "/mlatom/home/huangyh/projects/delta_learning/paper/revision1/Starting_from_ub3lyp_d4/da/b3lyp/b3lyp/ts/irc/Gau-107709.EMs"
         fchk file        "/mlatom/home/huangyh/projects/delta_learning/paper/revision1/Starting_from_ub3lyp_d4/da/b3lyp/b3lyp/ts/irc/Gau-107709.EFC"
         mat. el file     "/mlatom/home/huangyh/projects/delta_learning/paper/revision1/Starting_from_ub3lyp_d4/da/b3lyp/b3lyp/ts/irc/Gau-107709.EUF"
 Recovered energy= -234.544353600     dipole=     -0.447500000000      0.000000000000      0.001100000000
 NRF= 0 NRA=   0 NVA=   0 HaveQM=F NVQ=       0
 Convergence limit is  0.750E-04 MaxStp= 10000 StMxLn= 3.00D-04 StpMin= 1.00D-06.
 Convergence criteria             0.00011250 0.00007500 0.00045000 0.00030000
  Step  NS  ND Rises OKQ   Scale  Max. Force  RMS Force Max. Disp.  RMS Disp.     Energy   Flag
     1   0   0   F    T  1.00D+00 0.00000000 0.00000000 0.00000000 0.00000000 -234.5443536 ====
 Running external command "/mlatom/software/miniconda3/bin/python /mlatom/software/mlatom_xacs/mlatom/interfaces/gaussian_interface.py model_predict_kwargs R"
         input file       "/mlatom/home/huangyh/projects/delta_learning/paper/revision1/Starting_from_ub3lyp_d4/da/b3lyp/b3lyp/ts/irc/Gau-107709.EIn"
         output file      "/mlatom/home/huangyh/projects/delta_learning/paper/revision1/Starting_from_ub3lyp_d4/da/b3lyp/b3lyp/ts/irc/Gau-107709.EOu"
         message file     "/mlatom/home/huangyh/projects/delta_learning/paper/revision1/Starting_from_ub3lyp_d4/da/b3lyp/b3lyp/ts/irc/Gau-107709.EMs"
         fchk file        "/mlatom/home/huangyh/projects/delta_learning/paper/revision1/Starting_from_ub3lyp_d4/da/b3lyp/b3lyp/ts/irc/Gau-107709.EFC"
         mat. el file     "/mlatom/home/huangyh/projects/delta_learning/paper/revision1/Starting_from_ub3lyp_d4/da/b3lyp/b3lyp/ts/irc/Gau-107709.EUF"
 Recovered energy= -234.544353600     dipole=     -0.447500000000      0.000000000000      0.001100000000
 Energy=    -234.544354     NIter=   0.
 Dipole moment=      -0.447500       0.000000       0.001100
 Leave Link  402 at Sun May 25 22:25:35 2025, MaxMem=   104857600 cpu:               0.1 elap:              12.0
 (Enter /mlatom/software/Gaussian/g16-avx2/l716.exe)
 Dipole        =-4.47500000D-01 0.00000000D+00 1.10000000D-03
 -------------------------------------------------------------------
 Center     Atomic                   Forces (Hartrees/Bohr)
 Number     Number              X              Y              Z
 -------------------------------------------------------------------
      1        6           0.005171202   -0.001583482   -0.001063501
      2        6          -0.000055868   -0.001039608   -0.000536012
      3        1          -0.000322488    0.000186636   -0.000078464
      4        1           0.000231860   -0.000109102   -0.000063058
      5        1          -0.000141977    0.000005591    0.000160747
      6        6          -0.000055438    0.001039519   -0.000534133
      7        6           0.005170666    0.001582101   -0.001064904
      8        1          -0.000142003   -0.000005783    0.000160847
      9        1           0.000231719    0.000109116   -0.000063891
     10        1          -0.000322765   -0.000185010   -0.000078796
     11        6          -0.005107590    0.002270656    0.001655074
     12        6          -0.005107716   -0.002269338    0.001655513
     13        1           0.000045257   -0.000186531   -0.000220986
     14        1           0.000179709   -0.000182430    0.000145617
     15        1           0.000179541    0.000182310    0.000145788
     16        1           0.000045891    0.000185356   -0.000219838
 -------------------------------------------------------------------
 Cartesian Forces:  Max     0.005171202 RMS     0.001660320
 Z-matrix is all fixed cartesians, so copy forces.
 Leave Link  716 at Sun May 25 22:25:35 2025, MaxMem=   104857600 cpu:               0.0 elap:               0.1
 (Enter /mlatom/software/Gaussian/g16-avx2/l123.exe)
 IRC-IRC-IRC-IRC-IRC-IRC-IRC-IRC-IRC-IRC-IRC-IRC-IRC-IRC-IRC-IRC-IRC-IRC
 Pt  1 Step number   1 out of a maximum of  10
 Using modified Bulirsch-Stoer corrector integration.
   Using distance weighted interpolants to fit PES.
 PreDWI: IReCr0= 2 IReCr1= 1 IReCr2= 1 IReCr3= 1
 Modified Bulirsch-Stoer Extrapolation Cycles:
    EPS =    0.000010000000000
    Cycle     1 NS=    48
      PEZero:  N= 2 I= 1 D=  7.47D-04 Err=  1.02D-03
    Cycle     2 NS=    64 Truncation Error =  0.001018619
      PEZero:  N= 3 I= 2 D=  7.47D-04 Err=  6.79D-04
      PEZero:  N= 3 I= 1 D=  1.49D-03 Err=  5.59D-07
    Cycle     3 NS=    96 Truncation Error =  0.000000559
 BS completed in    3 cycles and     208 integration steps.
 Maximum DWI energy   std dev =  0.000004056 at pt    56
 Maximum DWI gradient std dev =  0.112882511 at pt     4
 SUMMARY OF CORRECTOR INTEGRATION:
   Predictor End Point Energy =  -234.544354
   Old End Point Energy       =  -234.544354
   Corrected End Point Energy =  -234.544355
   Predictor End-Start Dist.  =     0.286736
   Old End-Start Dist.        =     0.286736
   New End-Start Dist.        =     0.286669
   New End-Old End Dist.      =     0.005584
 CORRECTOR INTEGRATION CONVERGENCE:
   Recorrection delta-x convergence threshold:    0.010000
   Delta-x Convergence Met
 Point Number:   1          Path Number:   1
                    CURRENT STRUCTURE
                Cartesian Coordinates (Ang):                
 ---------------------------------------------------------------------
 Center     Atomic                     Coordinates (Angstroms)
 Number     Number                        X           Y           Z
 ---------------------------------------------------------------------
      1          6                   -0.399958    1.430891    0.488257
      2          6                   -1.294422    0.699891   -0.287386
      3          1                   -0.108237    1.070331    1.468735
      4          1                   -0.354100    2.512207    0.380268
      5          1                   -1.847634    1.214122   -1.071972
      6          6                   -1.294388   -0.699947   -0.287378
      7          6                   -0.399884   -1.430895    0.488270
      8          1                   -1.847575   -1.214215   -1.071957
      9          1                   -0.353982   -2.512211    0.380297
     10          1                   -0.108178   -1.070310    1.468745
     11          6                    1.584513    0.698905   -0.216878
     12          6                    1.584526   -0.698850   -0.216903
     13          1                    2.108678    1.233021    0.570907
     14          1                    1.508640    1.233815   -1.157281
     15          1                    1.508653   -1.233725   -1.157327
     16          1                    2.108721   -1.232984    0.570849
 ---------------------------------------------------------------------
   CHANGE IN THE REACTION COORDINATE =    0.28667
   NET REACTION COORDINATE UP TO THIS POINT =    0.28667
  # OF POINTS ALONG THE PATH =   1
  # OF STEPS =   1

 Calculating another point on the path.
 Point Number  2 in FORWARD path direction.
 Using LQA Reaction Path Following.
   LQA: T_Est iteration completed in    3 iterations.
 IRC-IRC-IRC-IRC-IRC-IRC-IRC-IRC-IRC-IRC-IRC-IRC-IRC-IRC-IRC-IRC-IRC-IRC
 Leave Link  123 at Sun May 25 22:25:35 2025, MaxMem=   104857600 cpu:               0.1 elap:               0.2
 (Enter /mlatom/software/Gaussian/g16-avx2/l202.exe)
                          Input orientation:                          
 ---------------------------------------------------------------------
 Center     Atomic      Atomic             Coordinates (Angstroms)
 Number     Number       Type             X           Y           Z
 ---------------------------------------------------------------------
      1          6           0       -0.380974    1.424828    0.482698
      2          6           0       -1.294230    0.696195   -0.288781
      3          1           0       -0.118179    1.073043    1.476290
      4          1           0       -0.342494    2.507097    0.377101
      5          1           0       -1.853417    1.214765   -1.066358
      6          6           0       -1.294197   -0.696250   -0.288772
      7          6           0       -0.380900   -1.424831    0.482710
      8          1           0       -1.853361   -1.214857   -1.066342
      9          1           0       -0.342376   -2.507100    0.377130
     10          1           0       -0.118119   -1.073022    1.476297
     11          6           0        1.564633    0.704794   -0.210362
     12          6           0        1.564646   -0.704739   -0.210385
     13          1           0        2.114195    1.230267    0.567305
     14          1           0        1.515700    1.231565   -1.158441
     15          1           0        1.515712   -1.231476   -1.158484
     16          1           0        2.114240   -1.230227    0.567250
 ---------------------------------------------------------------------
                    Distance matrix (angstroms):
                    1          2          3          4          5
     1  C    0.000000
     2  C    1.400044   0.000000
     3  H    1.086296   2.154202   0.000000
     4  H    1.088089   2.151411   1.820726   0.000000
     5  H    2.147508   1.089143   3.081590   2.456946   0.000000
     6  C    2.434773   1.392445   2.762040   3.407428   2.137603
     7  C    2.849659   2.434773   2.701036   3.933534   3.396378
     8  H    3.396379   2.137603   3.835403   4.268394   2.429622
     9  H    3.933535   3.407427   3.751778   5.014197   4.268394
    10  H    2.701035   2.762040   2.146065   3.751777   3.835404
    11  C    2.187274   2.859952   2.410862   2.688967   3.560319
    12  C    2.966624   3.184641   2.972757   3.781299   4.012524
    13  H    2.504172   3.554642   2.415464   2.775211   4.290809
    14  H    2.515563   2.989756   3.104271   2.727225   3.370417
    15  H    3.653334   3.516828   3.862958   4.448358   4.164567
    16  H    3.644524   4.007687   3.333931   4.476526   4.938518
                    6          7          8          9         10
     6  C    0.000000
     7  C    1.400045   0.000000
     8  H    1.089142   2.147509   0.000000
     9  H    2.151410   1.088089   2.456945   0.000000
    10  H    2.154202   1.086296   3.081590   1.820725   0.000000
    11  C    3.184648   2.966606   4.012536   3.781282   2.972726
    12  C    2.859931   2.187250   3.560289   2.688943   2.410856
    13  H    4.007677   3.644475   4.938515   4.476474   3.333862
    14  H    3.516862   3.653342   4.164617   4.448375   3.862944
    15  H    2.989725   2.515560   3.370374   2.727236   3.104285
    16  H    3.554624   2.504145   4.290771   2.775160   2.415472
                   11         12         13         14         15
    11  C    0.000000
    12  C    1.409533   0.000000
    13  H    1.087615   2.156631   0.000000
    14  H    1.085697   2.156498   1.826582   0.000000
    15  H    2.156495   1.085697   3.065406   2.463041   0.000000
    16  H    2.156630   1.087615   2.460494   3.065401   1.826580
                   16
    16  H    0.000000
 Symmetry turned off by external request.
 Stoichiometry    C6H10
 Framework group  C1[X(C6H10)]
 Deg. of freedom    42
 Full point group                 C1      NOp   1
 Rotational constants (GHZ):           4.3824188           3.5528360           2.3010768
 Leave Link  202 at Sun May 25 22:25:35 2025, MaxMem=   104857600 cpu:               0.0 elap:               0.1
 (Enter /mlatom/software/Gaussian/g16-avx2/l301.exe)
 Standard basis: STO-3G (5D, 7F)
 Ernie: Thresh=  0.10000D-02 Tol=  0.10000D-05 Strict=F.
    40 basis functions,   120 primitive gaussians,    40 cartesian basis functions
    23 alpha electrons       23 beta electrons
       nuclear repulsion energy       224.9542499888 Hartrees.
 IExCor=    0 DFT=F Ex=HF Corr=None ExCW=0 ScaHFX=  1.000000
 ScaDFX=  1.000000  1.000000  1.000000  1.000000 ScalE2=  1.000000  1.000000
 IRadAn=      5 IRanWt=     -1 IRanGd=            0 ICorTp=0 IEmpDi=  4
 NAtoms=   16 NActive=   16 NUniq=   16 SFac= 1.00D+00 NAtFMM=   60 NAOKFM=F Big=F
 Integral buffers will be    131072 words long.
 Raffenetti 1 integral format.
 Two-electron integral symmetry is turned off.
 Leave Link  301 at Sun May 25 22:25:35 2025, MaxMem=   104857600 cpu:               0.0 elap:               0.1
 (Enter /mlatom/software/Gaussian/g16-avx2/l402.exe)
 External calculation of energy and first derivatives.
 Running external command "/mlatom/software/miniconda3/bin/python /mlatom/software/mlatom_xacs/mlatom/interfaces/gaussian_interface.py model_predict_kwargs R"
         input file       "/mlatom/home/huangyh/projects/delta_learning/paper/revision1/Starting_from_ub3lyp_d4/da/b3lyp/b3lyp/ts/irc/Gau-107709.EIn"
         output file      "/mlatom/home/huangyh/projects/delta_learning/paper/revision1/Starting_from_ub3lyp_d4/da/b3lyp/b3lyp/ts/irc/Gau-107709.EOu"
         message file     "/mlatom/home/huangyh/projects/delta_learning/paper/revision1/Starting_from_ub3lyp_d4/da/b3lyp/b3lyp/ts/irc/Gau-107709.EMs"
         fchk file        "/mlatom/home/huangyh/projects/delta_learning/paper/revision1/Starting_from_ub3lyp_d4/da/b3lyp/b3lyp/ts/irc/Gau-107709.EFC"
         mat. el file     "/mlatom/home/huangyh/projects/delta_learning/paper/revision1/Starting_from_ub3lyp_d4/da/b3lyp/b3lyp/ts/irc/Gau-107709.EUF"
 Recovered energy= -234.545872300     dipole=      0.490900000000      0.000000000000     -0.006500000000
 NRF= 0 NRA=   0 NVA=   0 HaveQM=F NVQ=       0
 Convergence limit is  0.750E-04 MaxStp= 10000 StMxLn= 3.00D-04 StpMin= 1.00D-06.
 Convergence criteria             0.00011250 0.00007500 0.00045000 0.00030000
  Step  NS  ND Rises OKQ   Scale  Max. Force  RMS Force Max. Disp.  RMS Disp.     Energy   Flag
     1   0   0   F    T  1.00D+00 0.00000000 0.00000000 0.00000000 0.00000000 -234.5458723 ====
 Running external command "/mlatom/software/miniconda3/bin/python /mlatom/software/mlatom_xacs/mlatom/interfaces/gaussian_interface.py model_predict_kwargs R"
         input file       "/mlatom/home/huangyh/projects/delta_learning/paper/revision1/Starting_from_ub3lyp_d4/da/b3lyp/b3lyp/ts/irc/Gau-107709.EIn"
         output file      "/mlatom/home/huangyh/projects/delta_learning/paper/revision1/Starting_from_ub3lyp_d4/da/b3lyp/b3lyp/ts/irc/Gau-107709.EOu"
         message file     "/mlatom/home/huangyh/projects/delta_learning/paper/revision1/Starting_from_ub3lyp_d4/da/b3lyp/b3lyp/ts/irc/Gau-107709.EMs"
         fchk file        "/mlatom/home/huangyh/projects/delta_learning/paper/revision1/Starting_from_ub3lyp_d4/da/b3lyp/b3lyp/ts/irc/Gau-107709.EFC"
         mat. el file     "/mlatom/home/huangyh/projects/delta_learning/paper/revision1/Starting_from_ub3lyp_d4/da/b3lyp/b3lyp/ts/irc/Gau-107709.EUF"
 Recovered energy= -234.545872300     dipole=      0.490900000000      0.000000000000     -0.006500000000
 Energy=    -234.545872     NIter=   0.
 Dipole moment=       0.490900       0.000000      -0.006500
 Leave Link  402 at Sun May 25 22:25:48 2025, MaxMem=   104857600 cpu:               0.1 elap:              12.8
 (Enter /mlatom/software/Gaussian/g16-avx2/l716.exe)
 Dipole        = 4.90900000D-01 0.00000000D+00-6.50000000D-03
 -------------------------------------------------------------------
 Center     Atomic                   Forces (Hartrees/Bohr)
 Number     Number              X              Y              Z
 -------------------------------------------------------------------
      1        6           0.011206119   -0.003418394   -0.002348959
      2        6          -0.000101982   -0.002097068   -0.001168405
      3        1          -0.000677879    0.000398792   -0.000190083
      4        1           0.000481738   -0.000242955   -0.000142397
      5        1          -0.000324572    0.000011773    0.000380764
      6        6          -0.000102238    0.002096949   -0.001168426
      7        6           0.011205786    0.003418687   -0.002349803
      8        1          -0.000324592   -0.000011755    0.000380779
      9        1           0.000481676    0.000242942   -0.000142409
     10        1          -0.000677793   -0.000398744   -0.000189912
     11        6          -0.011031944    0.004888985    0.003642172
     12        6          -0.011031636   -0.004889105    0.003642956
     13        1           0.000088983   -0.000410409   -0.000486419
     14        1           0.000359686   -0.000390811    0.000313226
     15        1           0.000359666    0.000390649    0.000313199
     16        1           0.000088982    0.000410464   -0.000486284
 -------------------------------------------------------------------
 Cartesian Forces:  Max     0.011206119 RMS     0.003590690
 Z-matrix is all fixed cartesians, so copy forces.
 Leave Link  716 at Sun May 25 22:25:48 2025, MaxMem=   104857600 cpu:               0.0 elap:               0.1
 (Enter /mlatom/software/Gaussian/g16-avx2/l123.exe)
 IRC-IRC-IRC-IRC-IRC-IRC-IRC-IRC-IRC-IRC-IRC-IRC-IRC-IRC-IRC-IRC-IRC-IRC
 Pt  2 Step number   1 out of a maximum of  10
 Using modified Bulirsch-Stoer corrector integration.
   Using distance weighted interpolants to fit PES.
 PreDWI: IReCr0= 2 IReCr1= 1 IReCr2= 1 IReCr3= 1
 Modified Bulirsch-Stoer Extrapolation Cycles:
    EPS =    0.000010000000000
    Cycle     1 NS=    48
      PEZero:  N= 2 I= 1 D=  1.49D-03 Err=  1.32D-05
    Cycle     2 NS=    64 Truncation Error =  0.000013178
      PEZero:  N= 3 I= 2 D=  1.49D-03 Err=  8.75D-06
      PEZero:  N= 3 I= 1 D=  2.99D-03 Err=  4.69D-08
    Cycle     3 NS=    96 Truncation Error =  0.000000047
 BS completed in    3 cycles and     208 integration steps.
 Maximum DWI energy   std dev =  0.000012343 at pt    69
 Maximum DWI gradient std dev =  0.076428451 at pt    55
 SUMMARY OF CORRECTOR INTEGRATION:
   Predictor End Point Energy =  -234.545872
   Old End Point Energy       =  -234.545872
   Corrected End Point Energy =  -234.545876
   Predictor End-Start Dist.  =     0.286636
   Old End-Start Dist.        =     0.286636
   New End-Start Dist.        =     0.286602
   New End-Old End Dist.      =     0.006230
 CORRECTOR INTEGRATION CONVERGENCE:
   Recorrection delta-x convergence threshold:    0.010000
   Delta-x Convergence Met
 Point Number:   2          Path Number:   1
                    CURRENT STRUCTURE
                Cartesian Coordinates (Ang):                
 ---------------------------------------------------------------------
 Center     Atomic                     Coordinates (Angstroms)
 Number     Number                        X           Y           Z
 ---------------------------------------------------------------------
      1          6                   -0.380919    1.424948    0.482869
      2          6                   -1.294308    0.696187   -0.288926
      3          1                   -0.118541    1.073632    1.475787
      4          1                   -0.342988    2.507221    0.377184
      5          1                   -1.854042    1.214875   -1.065881
      6          6                   -1.294275   -0.696243   -0.288917
      7          6                   -0.380845   -1.424951    0.482881
      8          1                   -1.853985   -1.214967   -1.065865
      9          1                   -0.342870   -2.507224    0.377213
     10          1                   -0.118481   -1.073611    1.475795
     11          6                    1.564769    0.705212   -0.210381
     12          6                    1.564782   -0.705158   -0.210405
     13          1                    2.114353    1.229857    0.566933
     14          1                    1.515748    1.231155   -1.158161
     15          1                    1.515760   -1.231066   -1.158204
     16          1                    2.114397   -1.229817    0.566878
 ---------------------------------------------------------------------
   CHANGE IN THE REACTION COORDINATE =    0.28660
   NET REACTION COORDINATE UP TO THIS POINT =    0.57327
  # OF POINTS ALONG THE PATH =   2
  # OF STEPS =   1

 Calculating another point on the path.
 Point Number  3 in FORWARD path direction.
 Using LQA Reaction Path Following.
   LQA: T_Est iteration completed in    3 iterations.
 IRC-IRC-IRC-IRC-IRC-IRC-IRC-IRC-IRC-IRC-IRC-IRC-IRC-IRC-IRC-IRC-IRC-IRC
 Leave Link  123 at Sun May 25 22:25:49 2025, MaxMem=   104857600 cpu:               0.1 elap:               0.2
 (Enter /mlatom/software/Gaussian/g16-avx2/l202.exe)
                          Input orientation:                          
 ---------------------------------------------------------------------
 Center     Atomic      Atomic             Coordinates (Angstroms)
 Number     Number       Type             X           Y           Z
 ---------------------------------------------------------------------
      1          6           0       -0.361852    1.419126    0.477528
      2          6           0       -1.294255    0.692471   -0.290576
      3          1           0       -0.129046    1.077255    1.482987
      4          1           0       -0.332343    2.502393    0.374200
      5          1           0       -1.861211    1.215785   -1.059303
      6          6           0       -1.294223   -0.692527   -0.290567
      7          6           0       -0.361779   -1.419128    0.477539
      8          1           0       -1.861155   -1.215877   -1.059287
      9          1           0       -0.332226   -2.502397    0.374228
     10          1           0       -0.128986   -1.077235    1.482995
     11          6           0        1.545128    0.711723   -0.203862
     12          6           0        1.545142   -0.711669   -0.203884
     13          1           0        2.120562    1.226668    0.562826
     14          1           0        1.522982    1.228469   -1.159115
     15          1           0        1.522994   -1.228381   -1.159156
     16          1           0        2.120607   -1.226626    0.562772
 ---------------------------------------------------------------------
                    Distance matrix (angstroms):
                    1          2          3          4          5
     1  C    0.000000
     2  C    1.409747   0.000000
     3  H    1.087209   2.156687   0.000000
     4  H    1.088585   2.154767   1.817074   0.000000
     5  H    2.156681   1.089145   3.079420   2.459213   0.000000
     6  C    2.432768   1.384998   2.763198   3.402153   2.134030
     7  C    2.838254   2.432769   2.701300   3.922993   3.398962
     8  H    3.398963   2.134030   3.836902   4.268218   2.431662
     9  H    3.922994   3.402153   3.752937   5.004790   4.268217
    10  H    2.701297   2.763198   2.154490   3.752935   3.836902
    11  C    2.145060   2.840772   2.404564   2.658111   3.548098
    12  C    2.939597   3.168801   2.974674   3.766872   4.006252
    13  H    2.491324   3.560145   2.435109   2.771245   4.299527
    14  H    2.503508   2.996411   3.119739   2.723265   3.385688
    15  H    3.638773   3.518664   3.876353   4.439835   4.175734
    16  H    3.629032   4.009042   3.348970   4.467450   4.944833
                    6          7          8          9         10
     6  C    0.000000
     7  C    1.409748   0.000000
     8  H    1.089145   2.156681   0.000000
     9  H    2.154766   1.088585   2.459211   0.000000
    10  H    2.156687   1.087209   3.079420   1.817073   0.000000
    11  C    3.168808   2.939579   4.006264   3.766857   2.974644
    12  C    2.840752   2.145036   3.548069   2.658087   2.404558
    13  H    4.009032   3.628984   4.944830   4.467399   3.348902
    14  H    3.518699   3.638781   4.175784   4.439853   3.876340
    15  H    2.996380   2.503503   3.385645   2.723275   3.119751
    16  H    3.560128   2.491297   4.299490   2.771196   2.435117
                   11         12         13         14         15
    11  C    0.000000
    12  C    1.423392   0.000000
    13  H    1.088164   2.162430   0.000000
    14  H    1.086290   2.162659   1.822686   0.000000
    15  H    2.162656   1.086290   3.057707   2.456849   0.000000
    16  H    2.162429   1.088165   2.453294   3.057702   1.822685
                   16
    16  H    0.000000
 Symmetry turned off by external request.
 Stoichiometry    C6H10
 Framework group  C1[X(C6H10)]
 Deg. of freedom    42
 Full point group                 C1      NOp   1
 Rotational constants (GHZ):           4.4009925           3.5985421           2.3221214
 Leave Link  202 at Sun May 25 22:25:49 2025, MaxMem=   104857600 cpu:               0.0 elap:               0.3
 (Enter /mlatom/software/Gaussian/g16-avx2/l301.exe)
 Standard basis: STO-3G (5D, 7F)
 Ernie: Thresh=  0.10000D-02 Tol=  0.10000D-05 Strict=F.
    40 basis functions,   120 primitive gaussians,    40 cartesian basis functions
    23 alpha electrons       23 beta electrons
       nuclear repulsion energy       225.3917265980 Hartrees.
 IExCor=    0 DFT=F Ex=HF Corr=None ExCW=0 ScaHFX=  1.000000
 ScaDFX=  1.000000  1.000000  1.000000  1.000000 ScalE2=  1.000000  1.000000
 IRadAn=      5 IRanWt=     -1 IRanGd=            0 ICorTp=0 IEmpDi=  4
 NAtoms=   16 NActive=   16 NUniq=   16 SFac= 1.00D+00 NAtFMM=   60 NAOKFM=F Big=F
 Integral buffers will be    131072 words long.
 Raffenetti 1 integral format.
 Two-electron integral symmetry is turned off.
 Leave Link  301 at Sun May 25 22:25:49 2025, MaxMem=   104857600 cpu:               0.0 elap:               0.2
 (Enter /mlatom/software/Gaussian/g16-avx2/l402.exe)
 External calculation of energy and first derivatives.
 Running external command "/mlatom/software/miniconda3/bin/python /mlatom/software/mlatom_xacs/mlatom/interfaces/gaussian_interface.py model_predict_kwargs R"
         input file       "/mlatom/home/huangyh/projects/delta_learning/paper/revision1/Starting_from_ub3lyp_d4/da/b3lyp/b3lyp/ts/irc/Gau-107709.EIn"
         output file      "/mlatom/home/huangyh/projects/delta_learning/paper/revision1/Starting_from_ub3lyp_d4/da/b3lyp/b3lyp/ts/irc/Gau-107709.EOu"
         message file     "/mlatom/home/huangyh/projects/delta_learning/paper/revision1/Starting_from_ub3lyp_d4/da/b3lyp/b3lyp/ts/irc/Gau-107709.EMs"
         fchk file        "/mlatom/home/huangyh/projects/delta_learning/paper/revision1/Starting_from_ub3lyp_d4/da/b3lyp/b3lyp/ts/irc/Gau-107709.EFC"
         mat. el file     "/mlatom/home/huangyh/projects/delta_learning/paper/revision1/Starting_from_ub3lyp_d4/da/b3lyp/b3lyp/ts/irc/Gau-107709.EUF"
 Recovered energy= -234.548577500     dipole=      0.523100000000      0.000000000000     -0.015900000000
 NRF= 0 NRA=   0 NVA=   0 HaveQM=F NVQ=       0
 Convergence limit is  0.750E-04 MaxStp= 10000 StMxLn= 3.00D-04 StpMin= 1.00D-06.
 Convergence criteria             0.00011250 0.00007500 0.00045000 0.00030000
  Step  NS  ND Rises OKQ   Scale  Max. Force  RMS Force Max. Disp.  RMS Disp.     Energy   Flag
     1   0   0   F    T  1.00D+00 0.00000000 0.00000000 0.00000000 0.00000000 -234.5485775 ====
 Running external command "/mlatom/software/miniconda3/bin/python /mlatom/software/mlatom_xacs/mlatom/interfaces/gaussian_interface.py model_predict_kwargs R"
         input file       "/mlatom/home/huangyh/projects/delta_learning/paper/revision1/Starting_from_ub3lyp_d4/da/b3lyp/b3lyp/ts/irc/Gau-107709.EIn"
         output file      "/mlatom/home/huangyh/projects/delta_learning/paper/revision1/Starting_from_ub3lyp_d4/da/b3lyp/b3lyp/ts/irc/Gau-107709.EOu"
         message file     "/mlatom/home/huangyh/projects/delta_learning/paper/revision1/Starting_from_ub3lyp_d4/da/b3lyp/b3lyp/ts/irc/Gau-107709.EMs"
         fchk file        "/mlatom/home/huangyh/projects/delta_learning/paper/revision1/Starting_from_ub3lyp_d4/da/b3lyp/b3lyp/ts/irc/Gau-107709.EFC"
         mat. el file     "/mlatom/home/huangyh/projects/delta_learning/paper/revision1/Starting_from_ub3lyp_d4/da/b3lyp/b3lyp/ts/irc/Gau-107709.EUF"
 Recovered energy= -234.548577500     dipole=      0.523100000000      0.000000000000     -0.015900000000
 Energy=    -234.548577     NIter=   0.
 Dipole moment=       0.523100       0.000000      -0.015900
 Leave Link  402 at Sun May 25 22:26:02 2025, MaxMem=   104857600 cpu:               0.1 elap:              12.8
 (Enter /mlatom/software/Gaussian/g16-avx2/l716.exe)
 Dipole        = 5.23100000D-01 0.00000000D+00-1.59000000D-02
 -------------------------------------------------------------------
 Center     Atomic                   Forces (Hartrees/Bohr)
 Number     Number              X              Y              Z
 -------------------------------------------------------------------
      1        6           0.017657778   -0.005300332   -0.004136602
      2        6          -0.000051266   -0.003105645   -0.001805972
      3        1          -0.000965322    0.000531056   -0.000046375
      4        1           0.000740254   -0.000373241   -0.000230573
      5        1          -0.000560970    0.000040521    0.000633490
      6        6          -0.000051624    0.003105626   -0.001806131
      7        6           0.017657535    0.005300884   -0.004137139
      8        1          -0.000561004   -0.000040521    0.000633474
      9        1           0.000740195    0.000373273   -0.000230602
     10        1          -0.000965258   -0.000531136   -0.000046514
     11        6          -0.017572113    0.007210862    0.005913691
     12        6          -0.017571749   -0.007211437    0.005914524
     13        1           0.000236277   -0.000521468   -0.000623051
     14        1           0.000515520   -0.000470725    0.000295333
     15        1           0.000515420    0.000470632    0.000295478
     16        1           0.000236326    0.000521652   -0.000623031
 -------------------------------------------------------------------
 Cartesian Forces:  Max     0.017657778 RMS     0.005662844
 Z-matrix is all fixed cartesians, so copy forces.
 Leave Link  716 at Sun May 25 22:26:02 2025, MaxMem=   104857600 cpu:               0.0 elap:               0.1
 (Enter /mlatom/software/Gaussian/g16-avx2/l123.exe)
 IRC-IRC-IRC-IRC-IRC-IRC-IRC-IRC-IRC-IRC-IRC-IRC-IRC-IRC-IRC-IRC-IRC-IRC
 Pt  3 Step number   1 out of a maximum of  10
 Using modified Bulirsch-Stoer corrector integration.
   Using distance weighted interpolants to fit PES.
 PreDWI: IReCr0= 2 IReCr1= 1 IReCr2= 1 IReCr3= 1
 Modified Bulirsch-Stoer Extrapolation Cycles:
    EPS =    0.000010000000000
    Cycle     1 NS=    48
      PEZero:  N= 2 I= 1 D=  1.49D-03 Err=  1.18D-05
    Cycle     2 NS=    64 Truncation Error =  0.000011795
      PEZero:  N= 3 I= 2 D=  1.49D-03 Err=  7.84D-06
      PEZero:  N= 3 I= 1 D=  2.99D-03 Err=  5.29D-08
    Cycle     3 NS=    96 Truncation Error =  0.000000053
 BS completed in    3 cycles and     208 integration steps.
 Maximum DWI energy   std dev =  0.000008143 at pt    66
 Maximum DWI gradient std dev =  0.042536097 at pt    56
 SUMMARY OF CORRECTOR INTEGRATION:
   Predictor End Point Energy =  -234.548577
   Old End Point Energy       =  -234.548577
   Corrected End Point Energy =  -234.548581
   Predictor End-Start Dist.  =     0.286653
   Old End-Start Dist.        =     0.286653
   New End-Start Dist.        =     0.286635
   New End-Old End Dist.      =     0.004386
 CORRECTOR INTEGRATION CONVERGENCE:
   Recorrection delta-x convergence threshold:    0.010000
   Delta-x Convergence Met
 Point Number:   3          Path Number:   1
                    CURRENT STRUCTURE
                Cartesian Coordinates (Ang):                
 ---------------------------------------------------------------------
 Center     Atomic                     Coordinates (Angstroms)
 Number     Number                        X           Y           Z
 ---------------------------------------------------------------------
      1          6                   -0.361814    1.419186    0.477636
      2          6                   -1.294268    0.692539   -0.290655
      3          1                   -0.129179    1.077649    1.482313
      4          1                   -0.332584    2.502429    0.374183
      5          1                   -1.861505    1.215859   -1.058958
      6          6                   -1.294235   -0.692594   -0.290647
      7          6                   -0.361741   -1.419188    0.477647
      8          1                   -1.861449   -1.215951   -1.058943
      9          1                   -0.332467   -2.502432    0.374211
     10          1                   -0.129119   -1.077629    1.482320
     11          6                    1.545201    0.711980   -0.203867
     12          6                    1.545215   -0.711926   -0.203890
     13          1                    2.120309    1.226301    0.562554
     14          1                    1.522757    1.228104   -1.158746
     15          1                    1.522769   -1.228017   -1.158787
     16          1                    2.120355   -1.226259    0.562500
 ---------------------------------------------------------------------
   CHANGE IN THE REACTION COORDINATE =    0.28663
   NET REACTION COORDINATE UP TO THIS POINT =    0.85991
  # OF POINTS ALONG THE PATH =   3
  # OF STEPS =   1

 Calculating another point on the path.
 Point Number  4 in FORWARD path direction.
 Using LQA Reaction Path Following.
   LQA: T_Est iteration completed in    3 iterations.
 IRC-IRC-IRC-IRC-IRC-IRC-IRC-IRC-IRC-IRC-IRC-IRC-IRC-IRC-IRC-IRC-IRC-IRC
 Leave Link  123 at Sun May 25 22:26:03 2025, MaxMem=   104857600 cpu:               0.0 elap:               0.3
 (Enter /mlatom/software/Gaussian/g16-avx2/l202.exe)
                          Input orientation:                          
 ---------------------------------------------------------------------
 Center     Atomic      Atomic             Coordinates (Angstroms)
 Number     Number       Type             X           Y           Z
 ---------------------------------------------------------------------
      1          6           0       -0.342687    1.413548    0.472416
      2          6           0       -1.294232    0.688945   -0.292476
      3          1           0       -0.139788    1.081921    1.488788
      4          1           0       -0.322502    2.497775    0.371171
      5          1           0       -1.869638    1.217047   -1.051549
      6          6           0       -1.294199   -0.689001   -0.292468
      7          6           0       -0.342614   -1.413550    0.472426
      8          1           0       -1.869582   -1.217139   -1.051533
      9          1           0       -0.322386   -2.497778    0.371198
     10          1           0       -0.139727   -1.081902    1.488795
     11          6           0        1.525699    0.718905   -0.197314
     12          6           0        1.525713   -0.718852   -0.197336
     13          1           0        2.126420    1.222713    0.558178
     14          1           0        1.529529    1.224992   -1.159301
     15          1           0        1.529539   -1.224906   -1.159340
     16          1           0        2.126466   -1.222670    0.558125
 ---------------------------------------------------------------------
                    Distance matrix (angstroms):
                    1          2          3          4          5
     1  C    0.000000
     2  C    1.419699   0.000000
     3  H    1.088190   2.158720   0.000000
     4  H    1.089131   2.157904   1.813035   0.000000
     5  H    2.166255   1.089117   3.076353   2.461305   0.000000
     6  C    2.431283   1.377946   2.764364   3.397080   2.130810
     7  C    2.827097   2.431283   2.702130   3.912687   3.402108
     8  H    3.402109   2.130811   3.838112   4.268270   2.434187
     9  H    3.912688   3.397080   3.754543   4.995553   4.268269
    10  H    2.702126   2.764364   2.163823   3.754541   3.838112
    11  C    2.102839   2.821695   2.397618   2.627432   3.536407
    12  C    2.913179   3.153257   2.976524   3.753103   4.000724
    13  H    2.477955   3.565022   2.453886   2.767304   4.308100
    14  H    2.490631   3.002058   3.133602   2.718885   3.400883
    15  H    3.623437   3.519653   3.888533   4.430674   4.186784
    16  H    3.612991   4.009859   3.363508   4.458038   4.950971
                    6          7          8          9         10
     6  C    0.000000
     7  C    1.419700   0.000000
     8  H    1.089116   2.166255   0.000000
     9  H    2.157904   1.089131   2.461304   0.000000
    10  H    2.158721   1.088190   3.076354   1.813034   0.000000
    11  C    3.153265   2.913161   4.000736   3.753088   2.976493
    12  C    2.821675   2.102815   3.536378   2.627409   2.397610
    13  H    4.009849   3.612944   4.950968   4.457989   3.363439
    14  H    3.519689   3.623445   4.186834   4.430692   3.888520
    15  H    3.002026   2.490623   3.400839   2.718893   3.133611
    16  H    3.565006   2.477930   4.308066   2.767258   2.453894
                   11         12         13         14         15
    11  C    0.000000
    12  C    1.437757   0.000000
    13  H    1.088787   2.168254   0.000000
    14  H    1.086994   2.168852   1.818245   0.000000
    15  H    2.168850   1.086995   3.049094   2.449898   0.000000
    16  H    2.168253   1.088787   2.445383   3.049087   1.818244
                   16
    16  H    0.000000
 Symmetry turned off by external request.
 Stoichiometry    C6H10
 Framework group  C1[X(C6H10)]
 Deg. of freedom    42
 Full point group                 C1      NOp   1
 Rotational constants (GHZ):           4.4190576           3.6446372           2.3427827
 Leave Link  202 at Sun May 25 22:26:03 2025, MaxMem=   104857600 cpu:               0.0 elap:               0.1
 (Enter /mlatom/software/Gaussian/g16-avx2/l301.exe)
 Standard basis: STO-3G (5D, 7F)
 Ernie: Thresh=  0.10000D-02 Tol=  0.10000D-05 Strict=F.
    40 basis functions,   120 primitive gaussians,    40 cartesian basis functions
    23 alpha electrons       23 beta electrons
       nuclear repulsion energy       225.8349821761 Hartrees.
 IExCor=    0 DFT=F Ex=HF Corr=None ExCW=0 ScaHFX=  1.000000
 ScaDFX=  1.000000  1.000000  1.000000  1.000000 ScalE2=  1.000000  1.000000
 IRadAn=      5 IRanWt=     -1 IRanGd=            0 ICorTp=0 IEmpDi=  4
 NAtoms=   16 NActive=   16 NUniq=   16 SFac= 1.00D+00 NAtFMM=   60 NAOKFM=F Big=F
 Integral buffers will be    131072 words long.
 Raffenetti 1 integral format.
 Two-electron integral symmetry is turned off.
 Leave Link  301 at Sun May 25 22:26:03 2025, MaxMem=   104857600 cpu:               0.1 elap:               0.1
 (Enter /mlatom/software/Gaussian/g16-avx2/l402.exe)
 External calculation of energy and first derivatives.
 Running external command "/mlatom/software/miniconda3/bin/python /mlatom/software/mlatom_xacs/mlatom/interfaces/gaussian_interface.py model_predict_kwargs R"
         input file       "/mlatom/home/huangyh/projects/delta_learning/paper/revision1/Starting_from_ub3lyp_d4/da/b3lyp/b3lyp/ts/irc/Gau-107709.EIn"
         output file      "/mlatom/home/huangyh/projects/delta_learning/paper/revision1/Starting_from_ub3lyp_d4/da/b3lyp/b3lyp/ts/irc/Gau-107709.EOu"
         message file     "/mlatom/home/huangyh/projects/delta_learning/paper/revision1/Starting_from_ub3lyp_d4/da/b3lyp/b3lyp/ts/irc/Gau-107709.EMs"
         fchk file        "/mlatom/home/huangyh/projects/delta_learning/paper/revision1/Starting_from_ub3lyp_d4/da/b3lyp/b3lyp/ts/irc/Gau-107709.EFC"
         mat. el file     "/mlatom/home/huangyh/projects/delta_learning/paper/revision1/Starting_from_ub3lyp_d4/da/b3lyp/b3lyp/ts/irc/Gau-107709.EUF"
 Recovered energy= -234.552509200     dipole=      0.543700000000      0.000000000000     -0.026800000000
 NRF= 0 NRA=   0 NVA=   0 HaveQM=F NVQ=       0
 Convergence limit is  0.750E-04 MaxStp= 10000 StMxLn= 3.00D-04 StpMin= 1.00D-06.
 Convergence criteria             0.00011250 0.00007500 0.00045000 0.00030000
  Step  NS  ND Rises OKQ   Scale  Max. Force  RMS Force Max. Disp.  RMS Disp.     Energy   Flag
     1   0   0   F    T  1.00D+00 0.00000000 0.00000000 0.00000000 0.00000000 -234.5525092 ====
 Running external command "/mlatom/software/miniconda3/bin/python /mlatom/software/mlatom_xacs/mlatom/interfaces/gaussian_interface.py model_predict_kwargs R"
         input file       "/mlatom/home/huangyh/projects/delta_learning/paper/revision1/Starting_from_ub3lyp_d4/da/b3lyp/b3lyp/ts/irc/Gau-107709.EIn"
         output file      "/mlatom/home/huangyh/projects/delta_learning/paper/revision1/Starting_from_ub3lyp_d4/da/b3lyp/b3lyp/ts/irc/Gau-107709.EOu"
         message file     "/mlatom/home/huangyh/projects/delta_learning/paper/revision1/Starting_from_ub3lyp_d4/da/b3lyp/b3lyp/ts/irc/Gau-107709.EMs"
         fchk file        "/mlatom/home/huangyh/projects/delta_learning/paper/revision1/Starting_from_ub3lyp_d4/da/b3lyp/b3lyp/ts/irc/Gau-107709.EFC"
         mat. el file     "/mlatom/home/huangyh/projects/delta_learning/paper/revision1/Starting_from_ub3lyp_d4/da/b3lyp/b3lyp/ts/irc/Gau-107709.EUF"
 Recovered energy= -234.552509200     dipole=      0.543700000000      0.000000000000     -0.026800000000
 Energy=    -234.552509     NIter=   0.
 Dipole moment=       0.543700       0.000000      -0.026800
 Leave Link  402 at Sun May 25 22:26:15 2025, MaxMem=   104857600 cpu:               0.1 elap:              12.4
 (Enter /mlatom/software/Gaussian/g16-avx2/l716.exe)
 Dipole        = 5.43700000D-01 0.00000000D+00-2.68000000D-02
 -------------------------------------------------------------------
 Center     Atomic                   Forces (Hartrees/Bohr)
 Number     Number              X              Y              Z
 -------------------------------------------------------------------
      1        6           0.024100167   -0.007130300   -0.005965177
      2        6           0.000101618   -0.003969182   -0.002481768
      3        1          -0.001209419    0.000673589    0.000070801
      4        1           0.001007360   -0.000500421   -0.000332529
      5        1          -0.000842935    0.000092070    0.000922451
      6        6           0.000101267    0.003969167   -0.002481931
      7        6           0.024099831    0.007131056   -0.005965969
      8        1          -0.000842950   -0.000092076    0.000922437
      9        1           0.001007281    0.000500447   -0.000332560
     10        1          -0.001209330   -0.000673634    0.000070809
     11        6          -0.024111665    0.009526660    0.008217891
     12        6          -0.024111172   -0.009527449    0.008218937
     13        1           0.000351344   -0.000624546   -0.000729980
     14        1           0.000603670   -0.000555352    0.000298262
     15        1           0.000603531    0.000555211    0.000298336
     16        1           0.000351400    0.000624760   -0.000730008
 -------------------------------------------------------------------
 Cartesian Forces:  Max     0.024111665 RMS     0.007733885
 Z-matrix is all fixed cartesians, so copy forces.
 Leave Link  716 at Sun May 25 22:26:15 2025, MaxMem=   104857600 cpu:               0.0 elap:               0.1
 (Enter /mlatom/software/Gaussian/g16-avx2/l123.exe)
 IRC-IRC-IRC-IRC-IRC-IRC-IRC-IRC-IRC-IRC-IRC-IRC-IRC-IRC-IRC-IRC-IRC-IRC
 Pt  4 Step number   1 out of a maximum of  10
 Using modified Bulirsch-Stoer corrector integration.
   Using distance weighted interpolants to fit PES.
 PreDWI: IReCr0= 2 IReCr1= 1 IReCr2= 1 IReCr3= 1
 Modified Bulirsch-Stoer Extrapolation Cycles:
    EPS =    0.000010000000000
    Cycle     1 NS=    48
      PEZero:  N= 2 I= 1 D=  1.49D-03 Err=  1.05D-05
    Cycle     2 NS=    64 Truncation Error =  0.000010503
      PEZero:  N= 3 I= 2 D=  1.49D-03 Err=  6.98D-06
      PEZero:  N= 3 I= 1 D=  2.99D-03 Err=  6.34D-08
    Cycle     3 NS=    96 Truncation Error =  0.000000063
 BS completed in    3 cycles and     208 integration steps.
 Maximum DWI energy   std dev =  0.000003108 at pt    46
 Maximum DWI gradient std dev =  0.027566227 at pt    28
 SUMMARY OF CORRECTOR INTEGRATION:
   Predictor End Point Energy =  -234.552509
   Old End Point Energy       =  -234.552509
   Corrected End Point Energy =  -234.552512
   Predictor End-Start Dist.  =     0.286660
   Old End-Start Dist.        =     0.286660
   New End-Start Dist.        =     0.286646
   New End-Old End Dist.      =     0.003621
 CORRECTOR INTEGRATION CONVERGENCE:
   Recorrection delta-x convergence threshold:    0.010000
   Delta-x Convergence Met
 Point Number:   4          Path Number:   1
                    CURRENT STRUCTURE
                Cartesian Coordinates (Ang):                
 ---------------------------------------------------------------------
 Center     Atomic                     Coordinates (Angstroms)
 Number     Number                        X           Y           Z
 ---------------------------------------------------------------------
      1          6                   -0.342661    1.413557    0.472468
      2          6                   -1.294203    0.689052   -0.292511
      3          1                   -0.139751    1.082184    1.488064
      4          1                   -0.322570    2.497750    0.371099
      5          1                   -1.869770    1.217095   -1.051265
      6          6                   -1.294170   -0.689108   -0.292503
      7          6                   -0.342588   -1.413559    0.472479
      8          1                   -1.869714   -1.217187   -1.051249
      9          1                   -0.322454   -2.497753    0.371127
     10          1                   -0.139690   -1.082164    1.488070
     11          6                    1.525728    0.719030   -0.197305
     12          6                    1.525742   -0.718977   -0.197327
     13          1                    2.125968    1.222413    0.557988
     14          1                    1.529155    1.224702   -1.158897
     15          1                    1.529165   -1.224616   -1.158937
     16          1                    2.126014   -1.222370    0.557935
 ---------------------------------------------------------------------
   CHANGE IN THE REACTION COORDINATE =    0.28665
   NET REACTION COORDINATE UP TO THIS POINT =    1.14655
  # OF POINTS ALONG THE PATH =   4
  # OF STEPS =   1

 Calculating another point on the path.
 Point Number  5 in FORWARD path direction.
 Using LQA Reaction Path Following.
   LQA: T_Est iteration completed in    3 iterations.
 IRC-IRC-IRC-IRC-IRC-IRC-IRC-IRC-IRC-IRC-IRC-IRC-IRC-IRC-IRC-IRC-IRC-IRC
 Leave Link  123 at Sun May 25 22:26:16 2025, MaxMem=   104857600 cpu:               0.1 elap:               0.3
 (Enter /mlatom/software/Gaussian/g16-avx2/l202.exe)
                          Input orientation:                          
 ---------------------------------------------------------------------
 Center     Atomic      Atomic             Coordinates (Angstroms)
 Number     Number       Type             X           Y           Z
 ---------------------------------------------------------------------
      1          6           0       -0.323490    1.408017    0.467266
      2          6           0       -1.294072    0.685688   -0.294425
      3          1           0       -0.149976    1.086861    1.493536
      4          1           0       -0.312622    2.493140    0.367876
      5          1           0       -1.878623    1.218576   -1.043054
      6          6           0       -1.294040   -0.685744   -0.294417
      7          6           0       -0.323418   -1.408018    0.467276
      8          1           0       -1.878567   -1.218669   -1.043039
      9          1           0       -0.312507   -2.493143    0.367903
     10          1           0       -0.149915   -1.086842    1.493542
     11          6           0        1.506271    0.726137   -0.190688
     12          6           0        1.506286   -0.726084   -0.190709
     13          1           0        2.131356    1.218510    0.553557
     14          1           0        1.534904    1.221238   -1.158872
     15          1           0        1.534913   -1.221152   -1.158910
     16          1           0        2.131403   -1.218465    0.553503
 ---------------------------------------------------------------------
                    Distance matrix (angstroms):
                    1          2          3          4          5
     1  C    0.000000
     2  C    1.429672   0.000000
     3  H    1.089256   2.160255   0.000000
     4  H    1.089720   2.160734   1.808642   0.000000
     5  H    2.176096   1.089089   3.072435   2.463249   0.000000
     6  C    2.430219   1.371432   2.765464   3.392215   2.128058
     7  C    2.816036   2.430220   2.703279   3.902440   3.405695
     8  H    3.405696   2.128058   3.838972   4.268535   2.437245
     9  H    3.902441   3.392214   3.756314   4.986283   4.268534
    10  H    2.703275   2.765464   2.173704   3.756311   3.838973
    11  C    2.060556   2.802556   2.389537   2.596664   3.525129
    12  C    2.887109   3.137812   2.977693   3.739499   3.995723
    13  H    2.463662   3.568828   2.470905   2.762642   4.316144
    14  H    2.476457   3.006192   3.145178   2.713309   3.415493
    15  H    3.607027   3.519451   3.898878   4.420456   4.197371
    16  H    3.596157   4.009821   3.376816   4.447891   4.956660
                    6          7          8          9         10
     6  C    0.000000
     7  C    1.429673   0.000000
     8  H    1.089089   2.176096   0.000000
     9  H    2.160733   1.089720   2.463247   0.000000
    10  H    2.160255   1.089256   3.072436   1.808641   0.000000
    11  C    3.137820   2.887092   3.995736   3.739484   2.977663
    12  C    2.802536   2.060532   3.525101   2.596642   2.389529
    13  H    4.009811   3.596110   4.956656   4.447842   3.376747
    14  H    3.519487   3.607035   4.197421   4.420474   3.898865
    15  H    3.006158   2.476448   3.415447   2.713315   3.145185
    16  H    3.568813   2.463638   4.316111   2.762598   2.470913
                   11         12         13         14         15
    11  C    0.000000
    12  C    1.452222   0.000000
    13  H    1.089524   2.173957   0.000000
    14  H    1.087807   2.174907   1.813332   0.000000
    15  H    2.174904   1.087808   3.039776   2.442389   0.000000
    16  H    2.173957   1.089524   2.436975   3.039768   1.813331
                   16
    16  H    0.000000
 Symmetry turned off by external request.
 Stoichiometry    C6H10
 Framework group  C1[X(C6H10)]
 Deg. of freedom    42
 Full point group                 C1      NOp   1
 Rotational constants (GHZ):           4.4371943           3.6917264           2.3633470
 Leave Link  202 at Sun May 25 22:26:16 2025, MaxMem=   104857600 cpu:               0.0 elap:               0.1
 (Enter /mlatom/software/Gaussian/g16-avx2/l301.exe)
 Standard basis: STO-3G (5D, 7F)
 Ernie: Thresh=  0.10000D-02 Tol=  0.10000D-05 Strict=F.
    40 basis functions,   120 primitive gaussians,    40 cartesian basis functions
    23 alpha electrons       23 beta electrons
       nuclear repulsion energy       226.3007219608 Hartrees.
 IExCor=    0 DFT=F Ex=HF Corr=None ExCW=0 ScaHFX=  1.000000
 ScaDFX=  1.000000  1.000000  1.000000  1.000000 ScalE2=  1.000000  1.000000
 IRadAn=      5 IRanWt=     -1 IRanGd=            0 ICorTp=0 IEmpDi=  4
 NAtoms=   16 NActive=   16 NUniq=   16 SFac= 1.00D+00 NAtFMM=   60 NAOKFM=F Big=F
 Integral buffers will be    131072 words long.
 Raffenetti 1 integral format.
 Two-electron integral symmetry is turned off.
 Leave Link  301 at Sun May 25 22:26:16 2025, MaxMem=   104857600 cpu:               0.1 elap:               0.1
 (Enter /mlatom/software/Gaussian/g16-avx2/l402.exe)
 External calculation of energy and first derivatives.
 Running external command "/mlatom/software/miniconda3/bin/python /mlatom/software/mlatom_xacs/mlatom/interfaces/gaussian_interface.py model_predict_kwargs R"
         input file       "/mlatom/home/huangyh/projects/delta_learning/paper/revision1/Starting_from_ub3lyp_d4/da/b3lyp/b3lyp/ts/irc/Gau-107709.EIn"
         output file      "/mlatom/home/huangyh/projects/delta_learning/paper/revision1/Starting_from_ub3lyp_d4/da/b3lyp/b3lyp/ts/irc/Gau-107709.EOu"
         message file     "/mlatom/home/huangyh/projects/delta_learning/paper/revision1/Starting_from_ub3lyp_d4/da/b3lyp/b3lyp/ts/irc/Gau-107709.EMs"
         fchk file        "/mlatom/home/huangyh/projects/delta_learning/paper/revision1/Starting_from_ub3lyp_d4/da/b3lyp/b3lyp/ts/irc/Gau-107709.EFC"
         mat. el file     "/mlatom/home/huangyh/projects/delta_learning/paper/revision1/Starting_from_ub3lyp_d4/da/b3lyp/b3lyp/ts/irc/Gau-107709.EUF"
 Recovered energy= -234.557617500     dipole=      0.552800000000      0.000000000000     -0.038500000000
 NRF= 0 NRA=   0 NVA=   0 HaveQM=F NVQ=       0
 Convergence limit is  0.750E-04 MaxStp= 10000 StMxLn= 3.00D-04 StpMin= 1.00D-06.
 Convergence criteria             0.00011250 0.00007500 0.00045000 0.00030000
  Step  NS  ND Rises OKQ   Scale  Max. Force  RMS Force Max. Disp.  RMS Disp.     Energy   Flag
     1   0   0   F    T  1.00D+00 0.00000000 0.00000000 0.00000000 0.00000000 -234.5576175 ====
 Running external command "/mlatom/software/miniconda3/bin/python /mlatom/software/mlatom_xacs/mlatom/interfaces/gaussian_interface.py model_predict_kwargs R"
         input file       "/mlatom/home/huangyh/projects/delta_learning/paper/revision1/Starting_from_ub3lyp_d4/da/b3lyp/b3lyp/ts/irc/Gau-107709.EIn"
         output file      "/mlatom/home/huangyh/projects/delta_learning/paper/revision1/Starting_from_ub3lyp_d4/da/b3lyp/b3lyp/ts/irc/Gau-107709.EOu"
         message file     "/mlatom/home/huangyh/projects/delta_learning/paper/revision1/Starting_from_ub3lyp_d4/da/b3lyp/b3lyp/ts/irc/Gau-107709.EMs"
         fchk file        "/mlatom/home/huangyh/projects/delta_learning/paper/revision1/Starting_from_ub3lyp_d4/da/b3lyp/b3lyp/ts/irc/Gau-107709.EFC"
         mat. el file     "/mlatom/home/huangyh/projects/delta_learning/paper/revision1/Starting_from_ub3lyp_d4/da/b3lyp/b3lyp/ts/irc/Gau-107709.EUF"
 Recovered energy= -234.557617500     dipole=      0.552800000000      0.000000000000     -0.038500000000
 Energy=    -234.557617     NIter=   0.
 Dipole moment=       0.552800       0.000000      -0.038500
 Leave Link  402 at Sun May 25 22:26:28 2025, MaxMem=   104857600 cpu:               0.1 elap:              11.9
 (Enter /mlatom/software/Gaussian/g16-avx2/l716.exe)
 Dipole        = 5.52800000D-01 0.00000000D+00-3.85000000D-02
 -------------------------------------------------------------------
 Center     Atomic                   Forces (Hartrees/Bohr)
 Number     Number              X              Y              Z
 -------------------------------------------------------------------
      1        6           0.030055654   -0.008805249   -0.007734776
[...]
   Old End Point Energy       =  -234.559528
   Corrected End Point Energy =  -234.559535
   Predictor End-Start Dist.  =     0.286486
   Old End-Start Dist.        =     0.286486
   New End-Start Dist.        =     0.286434
   New End-Old End Dist.      =     0.014559
 CORRECTOR INTEGRATION CONVERGENCE:
   Recorrection delta-x convergence threshold:    0.010000
   Delta-x Convergence NOT Met
 IRC-IRC-IRC-IRC-IRC-IRC-IRC-IRC-IRC-IRC-IRC-IRC-IRC-IRC-IRC-IRC-IRC-IRC
 Leave Link  123 at Sun May 25 22:30:10 2025, MaxMem=   104857600 cpu:               0.0 elap:               0.2
 (Enter /mlatom/software/Gaussian/g16-avx2/l202.exe)
                          Input orientation:                          
 ---------------------------------------------------------------------
 Center     Atomic      Atomic             Coordinates (Angstroms)
 Number     Number       Type             X           Y           Z
 ---------------------------------------------------------------------
      1          6           0       -0.598516    1.503190    0.553788
      2          6           0       -1.313206    0.726588   -0.281840
      3          1           0       -0.082871    1.102774    1.418562
      4          1           0       -0.574210    2.583215    0.442123
      5          1           0       -1.858007    1.205979   -1.094313
      6          6           0       -1.313172   -0.726645   -0.281831
      7          6           0       -0.598445   -1.503204    0.553805
      8          1           0       -1.857952   -1.206070   -1.094298
      9          1           0       -0.574089   -2.583229    0.442153
     10          1           0       -0.082818   -1.102753    1.418573
     11          6           0        1.812747    0.668258   -0.286244
     12          6           0        1.812763   -0.668192   -0.286269
     13          1           0        2.165705    1.243667    0.565784
     14          1           0        1.527196    1.241348   -1.161926
     15          1           0        1.527224   -1.241256   -1.161972
     16          1           0        2.165738   -1.243625    0.565736
 ---------------------------------------------------------------------
                    Distance matrix (angstroms):
                    1          2          3          4          5
     1  C    0.000000
     2  C    1.346167   0.000000
     3  H    1.083539   2.132277   0.000000
     4  H    1.086054   2.125394   1.840259   0.000000
     5  H    2.095445   1.089374   3.078359   2.430134   0.000000
     6  C    2.486193   1.453233   2.784196   3.467758   2.166104
     7  C    3.006394   2.486193   2.793697   4.088016   3.412104
     8  H    3.412105   2.166104   3.846575   4.285705   2.412049
     9  H    4.088016   3.467758   3.844644   5.166443   4.285704
    10  H    2.793696   2.784196   2.205527   3.844643   3.846574
    11  C    2.686439   3.126500   2.586220   3.145654   3.796914
    12  C    3.351845   3.423027   3.104223   4.098761   4.200000
    13  H    2.776403   3.617825   2.408978   3.052346   4.352884
    14  H    2.744247   3.017849   3.044739   2.964707   3.386063
    15  H    3.872285   3.565822   3.840057   4.649271   4.177718
    16  H    3.896952   4.086951   3.359932   4.708215   4.994681
                    6          7          8          9         10
     6  C    0.000000
     7  C    1.346167   0.000000
     8  H    1.089374   2.095445   0.000000
     9  H    2.125394   1.086054   2.430134   0.000000
    10  H    2.132277   1.083539   3.078359   1.840258   0.000000
    11  C    3.423031   3.351832   4.200010   4.098746   3.104199
    12  C    3.126484   2.686427   3.796889   3.145636   2.586224
    13  H    4.086951   3.896917   4.994687   4.708172   3.359880
    14  H    3.565846   3.872292   4.177757   4.649285   3.840043
    15  H    3.017834   2.744263   3.386035   2.964730   3.044771
    16  H    3.617796   2.776370   4.352838   3.052288   2.408979
                   11         12         13         14         15
    11  C    0.000000
    12  C    1.336451   0.000000
    13  H    1.087026   2.122679   0.000000
    14  H    1.084799   2.120063   1.841923   0.000000
    15  H    2.120063   1.084799   3.093160   2.482603   0.000000
    16  H    2.122680   1.087026   2.487291   3.093160   1.841923
                   16
    16  H    0.000000
 Symmetry turned off by external request.
 Stoichiometry    C6H10
 Framework group  C1[X(C6H10)]
 Deg. of freedom    42
 Full point group                 C1      NOp   1
 Rotational constants (GHZ):           4.0929527           2.9364528           1.9898373
 Leave Link  202 at Sun May 25 22:30:10 2025, MaxMem=   104857600 cpu:               0.0 elap:               0.0
 (Enter /mlatom/software/Gaussian/g16-avx2/l301.exe)
 Standard basis: STO-3G (5D, 7F)
 Ernie: Thresh=  0.10000D-02 Tol=  0.10000D-05 Strict=F.
    40 basis functions,   120 primitive gaussians,    40 cartesian basis functions
    23 alpha electrons       23 beta electrons
       nuclear repulsion energy       217.0700677521 Hartrees.
 IExCor=    0 DFT=F Ex=HF Corr=None ExCW=0 ScaHFX=  1.000000
 ScaDFX=  1.000000  1.000000  1.000000  1.000000 ScalE2=  1.000000  1.000000
 IRadAn=      5 IRanWt=     -1 IRanGd=            0 ICorTp=0 IEmpDi=  4
 NAtoms=   16 NActive=   16 NUniq=   16 SFac= 1.00D+00 NAtFMM=   60 NAOKFM=F Big=F
 Integral buffers will be    131072 words long.
 Raffenetti 1 integral format.
 Two-electron integral symmetry is turned off.
 Leave Link  301 at Sun May 25 22:30:10 2025, MaxMem=   104857600 cpu:               0.0 elap:               0.1
 (Enter /mlatom/software/Gaussian/g16-avx2/l402.exe)
 External calculation of energy and first derivatives.
 Running external command "/mlatom/software/miniconda3/bin/python /mlatom/software/mlatom_xacs/mlatom/interfaces/gaussian_interface.py model_predict_kwargs R"
         input file       "/mlatom/home/huangyh/projects/delta_learning/paper/revision1/Starting_from_ub3lyp_d4/da/b3lyp/b3lyp/ts/irc/Gau-107709.EIn"
         output file      "/mlatom/home/huangyh/projects/delta_learning/paper/revision1/Starting_from_ub3lyp_d4/da/b3lyp/b3lyp/ts/irc/Gau-107709.EOu"
         message file     "/mlatom/home/huangyh/projects/delta_learning/paper/revision1/Starting_from_ub3lyp_d4/da/b3lyp/b3lyp/ts/irc/Gau-107709.EMs"
         fchk file        "/mlatom/home/huangyh/projects/delta_learning/paper/revision1/Starting_from_ub3lyp_d4/da/b3lyp/b3lyp/ts/irc/Gau-107709.EFC"
         mat. el file     "/mlatom/home/huangyh/projects/delta_learning/paper/revision1/Starting_from_ub3lyp_d4/da/b3lyp/b3lyp/ts/irc/Gau-107709.EUF"
 Recovered energy= -234.559530700     dipole=      0.098500000000      0.000000000000     -0.025200000000
 NRF= 0 NRA=   0 NVA=   0 HaveQM=F NVQ=       0
 Convergence limit is  0.750E-04 MaxStp= 10000 StMxLn= 3.00D-04 StpMin= 1.00D-06.
 Convergence criteria             0.00011250 0.00007500 0.00045000 0.00030000
  Step  NS  ND Rises OKQ   Scale  Max. Force  RMS Force Max. Disp.  RMS Disp.     Energy   Flag
     1   0   0   F    T  1.00D+00 0.00000000 0.00000000 0.00000000 0.00000000 -234.5595307 ====
 Running external command "/mlatom/software/miniconda3/bin/python /mlatom/software/mlatom_xacs/mlatom/interfaces/gaussian_interface.py model_predict_kwargs R"
         input file       "/mlatom/home/huangyh/projects/delta_learning/paper/revision1/Starting_from_ub3lyp_d4/da/b3lyp/b3lyp/ts/irc/Gau-107709.EIn"
         output file      "/mlatom/home/huangyh/projects/delta_learning/paper/revision1/Starting_from_ub3lyp_d4/da/b3lyp/b3lyp/ts/irc/Gau-107709.EOu"
         message file     "/mlatom/home/huangyh/projects/delta_learning/paper/revision1/Starting_from_ub3lyp_d4/da/b3lyp/b3lyp/ts/irc/Gau-107709.EMs"
         fchk file        "/mlatom/home/huangyh/projects/delta_learning/paper/revision1/Starting_from_ub3lyp_d4/da/b3lyp/b3lyp/ts/irc/Gau-107709.EFC"
         mat. el file     "/mlatom/home/huangyh/projects/delta_learning/paper/revision1/Starting_from_ub3lyp_d4/da/b3lyp/b3lyp/ts/irc/Gau-107709.EUF"
 Recovered energy= -234.559530700     dipole=      0.098500000000      0.000000000000     -0.025200000000
 Energy=    -234.559531     NIter=   0.
 Dipole moment=       0.098500       0.000000      -0.025200
 Leave Link  402 at Sun May 25 22:30:22 2025, MaxMem=   104857600 cpu:               0.1 elap:              11.7
 (Enter /mlatom/software/Gaussian/g16-avx2/l716.exe)
 Dipole        = 9.85000000D-02 0.00000000D+00-2.52000000D-02
 -------------------------------------------------------------------
 Center     Atomic                   Forces (Hartrees/Bohr)
 Number     Number              X              Y              Z
 -------------------------------------------------------------------
      1        6          -0.006983026    0.002509370    0.002504159
      2        6          -0.001758856    0.000268464    0.000057830
      3        1          -0.000295109    0.000288409   -0.000032627
      4        1          -0.001053645    0.000349009    0.000266632
      5        1          -0.000224115   -0.000051518    0.000003515
      6        6          -0.001758867   -0.000268530    0.000057826
      7        6          -0.006983109   -0.002509728    0.002504254
      8        1          -0.000224120    0.000051512    0.000003510
      9        1          -0.001053642   -0.000349047    0.000266639
     10        1          -0.000295100   -0.000288421   -0.000032601
     11        6           0.009154766    0.000445311   -0.002527792
     12        6           0.009154812   -0.000444907   -0.002527882
     13        1           0.000629997   -0.000097553   -0.000269289
     14        1           0.000530001   -0.000107172   -0.000002465
     15        1           0.000530036    0.000107214   -0.000002440
     16        1           0.000629979    0.000097587   -0.000269268
 -------------------------------------------------------------------
 Cartesian Forces:  Max     0.009154812 RMS     0.002559281
 Z-matrix is all fixed cartesians, so copy forces.
 Leave Link  716 at Sun May 25 22:30:22 2025, MaxMem=   104857600 cpu:               0.0 elap:               0.1
 (Enter /mlatom/software/Gaussian/g16-avx2/l123.exe)
 IRC-IRC-IRC-IRC-IRC-IRC-IRC-IRC-IRC-IRC-IRC-IRC-IRC-IRC-IRC-IRC-IRC-IRC
 Error in corrector energy =          -0.0000038981
 Magnitude of corrector gradient =     0.0181019423
 Magnitude of analytic gradient =      0.0177312171
 Magnitude of difference =             0.0015703897
 Angle between gradients (degrees)=    4.8818
 Pt 20 Step number   2 out of a maximum of  10
 Using modified Bulirsch-Stoer corrector integration.
   Using distance weighted interpolants to fit PES.
 PreDWI: IReCr0= 2 IReCr1= 1 IReCr2= 1 IReCr3= 1
 Modified Bulirsch-Stoer Extrapolation Cycles:
    EPS =    0.000010000000000
    Cycle     1 NS=    48
      PEZero:  N= 2 I= 1 D=  1.49D-03 Err=  5.96D-05
    Cycle     2 NS=    64 Truncation Error =  0.000059593
      PEZero:  N= 3 I= 2 D=  1.49D-03 Err=  3.96D-05
      PEZero:  N= 3 I= 1 D=  2.98D-03 Err=  1.44D-07
    Cycle     3 NS=    96 Truncation Error =  0.000000144
 BS completed in    3 cycles and     208 integration steps.
 Maximum DWI energy   std dev =  0.000003147 at pt    65
 Maximum DWI gradient std dev =  0.032325421 at pt    58
 SUMMARY OF CORRECTOR INTEGRATION:
   Predictor End Point Energy =  -234.559528
   Old End Point Energy       =  -234.559531
   Corrected End Point Energy =  -234.559533
   Predictor End-Start Dist.  =     0.286486
   Old End-Start Dist.        =     0.286434
   New End-Start Dist.        =     0.286422
   New End-Old End Dist.      =     0.008211
 CORRECTOR INTEGRATION CONVERGENCE:
   Recorrection delta-x convergence threshold:    0.010000
   Delta-x Convergence Met
 Point Number:  10          Path Number:   2
                    CURRENT STRUCTURE
                Cartesian Coordinates (Ang):                
 ---------------------------------------------------------------------
 Center     Atomic                     Coordinates (Angstroms)
 Number     Number                        X           Y           Z
 ---------------------------------------------------------------------
      1          6                   -0.598323    1.503246    0.553803
      2          6                   -1.313291    0.726426   -0.281955
      3          1                   -0.083403    1.103011    1.418786
      4          1                   -0.575940    2.583623    0.442693
      5          1                   -1.858041    1.205887   -1.094449
      6          6                   -1.313257   -0.726482   -0.281946
      7          6                   -0.598252   -1.503260    0.553820
      8          1                   -1.857986   -1.205979   -1.094434
      9          1                   -0.575820   -2.583637    0.442723
     10          1                   -0.083349   -1.102991    1.418797
     11          6                    1.812550    0.668645   -0.286175
     12          6                    1.812566   -0.668580   -0.286200
     13          1                    2.166683    1.243446    0.565340
     14          1                    1.528115    1.241153   -1.162103
     15          1                    1.528143   -1.241062   -1.162149
     16          1                    2.166716   -1.243404    0.565292
 ---------------------------------------------------------------------
   CHANGE IN THE REACTION COORDINATE =    0.28642
   NET REACTION COORDINATE UP TO THIS POINT =    2.86585
  # OF POINTS ALONG THE PATH =  20
  # OF STEPS =   2

 Maximum number of steps reached.
 Calculation of REVERSE path complete.
 Reaction path calculation complete.
 
 Energies reported relative to the TS energy of        -234.543886
 --------------------------------------------------------------------------
    Summary of reaction path following
 --------------------------------------------------------------------------
                        Energy    RxCoord
   1                   -0.01565  -2.86585
   2                   -0.01402  -2.57943
   3                   -0.01227  -2.29282
   4                   -0.01042  -2.00619
   5                   -0.00851  -1.71959
   6                   -0.00657  -1.43295
   7                   -0.00467  -1.14635
   8                   -0.00292  -0.85972
   9                   -0.00143  -0.57318
  10                   -0.00039  -0.28662
  11                    0.00000   0.00000
  12                   -0.00047   0.28667
  13                   -0.00199   0.57327
  14                   -0.00469   0.85991
  15                   -0.00863   1.14655
  16                   -0.01373   1.43320
  17                   -0.01989   1.71985
  18                   -0.02691   2.00650
  19                   -0.03459   2.29315
  20                   -0.04270   2.57979
  21                   -0.05100   2.86644
 --------------------------------------------------------------------------
 
 Total number of points:                   20
 Total number of gradient calculations:    24
 Total number of Hessian calculations:      1
 IRC-IRC-IRC-IRC-IRC-IRC-IRC-IRC-IRC-IRC-IRC-IRC-IRC-IRC-IRC-IRC-IRC-IRC
 Leave Link  123 at Sun May 25 22:30:22 2025, MaxMem=   104857600 cpu:               0.0 elap:               0.2
 (Enter /mlatom/software/Gaussian/g16-avx2/l202.exe)
                          Input orientation:                          
 ---------------------------------------------------------------------
 Center     Atomic      Atomic             Coordinates (Angstroms)
 Number     Number       Type             X           Y           Z
 ---------------------------------------------------------------------
      1          6           0       -0.598516    1.503190    0.553788
      2          6           0       -1.313206    0.726588   -0.281840
      3          1           0       -0.082871    1.102774    1.418562
      4          1           0       -0.574210    2.583215    0.442123
      5          1           0       -1.858007    1.205979   -1.094313
      6          6           0       -1.313172   -0.726645   -0.281831
      7          6           0       -0.598445   -1.503204    0.553805
      8          1           0       -1.857952   -1.206070   -1.094298
      9          1           0       -0.574089   -2.583229    0.442153
     10          1           0       -0.082818   -1.102753    1.418573
     11          6           0        1.812747    0.668258   -0.286244
     12          6           0        1.812763   -0.668192   -0.286269
     13          1           0        2.165705    1.243667    0.565784
     14          1           0        1.527196    1.241348   -1.161926
     15          1           0        1.527224   -1.241256   -1.161972
     16          1           0        2.165738   -1.243625    0.565736
 ---------------------------------------------------------------------
                    Distance matrix (angstroms):
                    1          2          3          4          5
     1  C    0.000000
     2  C    1.346167   0.000000
     3  H    1.083539   2.132277   0.000000
     4  H    1.086054   2.125394   1.840259   0.000000
     5  H    2.095445   1.089374   3.078359   2.430134   0.000000
     6  C    2.486193   1.453233   2.784196   3.467758   2.166104
     7  C    3.006394   2.486193   2.793697   4.088016   3.412104
     8  H    3.412105   2.166104   3.846575   4.285705   2.412049
     9  H    4.088016   3.467758   3.844644   5.166443   4.285704
    10  H    2.793696   2.784196   2.205527   3.844643   3.846574
    11  C    2.686439   3.126500   2.586220   3.145654   3.796914
    12  C    3.351845   3.423027   3.104223   4.098761   4.200000
    13  H    2.776403   3.617825   2.408978   3.052346   4.352884
    14  H    2.744247   3.017849   3.044739   2.964707   3.386063
    15  H    3.872285   3.565822   3.840057   4.649271   4.177718
    16  H    3.896952   4.086951   3.359932   4.708215   4.994681
                    6          7          8          9         10
     6  C    0.000000
     7  C    1.346167   0.000000
     8  H    1.089374   2.095445   0.000000
     9  H    2.125394   1.086054   2.430134   0.000000
    10  H    2.132277   1.083539   3.078359   1.840258   0.000000
    11  C    3.423031   3.351832   4.200010   4.098746   3.104199
    12  C    3.126484   2.686427   3.796889   3.145636   2.586224
    13  H    4.086951   3.896917   4.994687   4.708172   3.359880
    14  H    3.565846   3.872292   4.177757   4.649285   3.840043
    15  H    3.017834   2.744263   3.386035   2.964730   3.044771
    16  H    3.617796   2.776370   4.352838   3.052288   2.408979
                   11         12         13         14         15
    11  C    0.000000
    12  C    1.336451   0.000000
    13  H    1.087026   2.122679   0.000000
    14  H    1.084799   2.120063   1.841923   0.000000
    15  H    2.120063   1.084799   3.093160   2.482603   0.000000
    16  H    2.122680   1.087026   2.487291   3.093160   1.841923
                   16
    16  H    0.000000
 Symmetry turned off by external request.
 Stoichiometry    C6H10
 Framework group  C1[X(C6H10)]
 Deg. of freedom    42
 Full point group                 C1      NOp   1
 Rotational constants (GHZ):           4.0929527           2.9364528           1.9898373
 Leave Link  202 at Sun May 25 22:30:23 2025, MaxMem=   104857600 cpu:               0.0 elap:               0.1
 (Enter /mlatom/software/Gaussian/g16-avx2/l601.exe)
 Leave Link  601 at Sun May 25 22:30:23 2025, MaxMem=   104857600 cpu:               0.0 elap:               0.1
 (Enter /mlatom/software/Gaussian/g16-avx2/l9999.exe)

 This type of calculation cannot be archived.


 What some people mistake for the high cost
 of living is really the cost of living high.
                              -- Doug Larson
 Job cpu time:       0 days  0 hours  0 minutes  6.8 seconds.
 Elapsed time:       0 days  0 hours  5 minutes 37.4 seconds.
 File lengths (MBytes):  RWF=     22 Int=      0 D2E=      0 Chk=      4 Scr=      2
 Normal termination of Gaussian 16 at Sun May 25 22:30:23 2025.
