 Entering Gaussian System, Link 0=/mlatom/software/Gaussian/g16-avx2/g16
 Input=gaussian.com
 Output=gaussian.log
 Initial command:
 /mlatom/software/Gaussian/g16-avx2/l1.exe "/mlatom/home/huangyh/projects/delta_learning/paper/revision1/Starting_from_ub3lyp_d4/da/b3lyp/irc/ts/Gau-91017.inp" -scrdir="/mlatom/home/huangyh/projects/delta_learning/paper/revision1/Starting_from_ub3lyp_d4/da/b3lyp/irc/ts/"
 Entering Link 1 = /mlatom/software/Gaussian/g16-avx2/l1.exe PID=     91018.
  
 Copyright (c) 1988,1990,1992,1993,1995,1998,2003,2009,2016,
            Gaussian, Inc.  All Rights Reserved.
  
 This is part of the Gaussian(R) 16 program.  It is based on
 the Gaussian(R) 09 system (copyright 2009, Gaussian, Inc.),
 the Gaussian(R) 03 system (copyright 2003, Gaussian, Inc.),
 the Gaussian(R) 98 system (copyright 1998, Gaussian, Inc.),
 the Gaussian(R) 94 system (copyright 1995, Gaussian, Inc.),
 the Gaussian 92(TM) system (copyright 1992, Gaussian, Inc.),
 the Gaussian 90(TM) system (copyright 1990, Gaussian, Inc.),
 the Gaussian 88(TM) system (copyright 1988, Gaussian, Inc.),
 the Gaussian 86(TM) system (copyright 1986, Carnegie Mellon
 University), and the Gaussian 82(TM) system (copyright 1983,
 Carnegie Mellon University). Gaussian is a federally registered
 trademark of Gaussian, Inc.
  
 This software contains proprietary and confidential information,
 including trade secrets, belonging to Gaussian, Inc.
  
 This software is provided under written license and may be
 used, copied, transmitted, or stored only in accord with that
 written license.
  
 The following legend is applicable only to US Government
 contracts under FAR:
  
                    RESTRICTED RIGHTS LEGEND
  
 Use, reproduction and disclosure by the US Government is
 subject to restrictions as set forth in subparagraphs (a)
 and (c) of the Commercial Computer Software - Restricted
 Rights clause in FAR 52.227-19.
  
 Gaussian, Inc.
 340 Quinnipiac St., Bldg. 40, Wallingford CT 06492
  
  
 ---------------------------------------------------------------
 Warning -- This program may not be used in any manner that
 competes with the business of Gaussian, Inc. or will provide
 assistance to any competitor of Gaussian, Inc.  The licensee
 of this program is prohibited from giving any competitor of
 Gaussian, Inc. access to this program.  By using this program,
 the user acknowledges that Gaussian, Inc. is engaged in the
 business of creating and licensing software in the field of
 computational chemistry and represents and warrants to the
 licensee that it is not a competitor of Gaussian, Inc. and that
 it will not use this program in any manner prohibited above.
 ---------------------------------------------------------------
  

 Cite this work as:
 Gaussian 16, Revision A.03,
 M. J. Frisch, G. W. Trucks, H. B. Schlegel, G. E. Scuseria, 
 M. A. Robb, J. R. Cheeseman, G. Scalmani, V. Barone, 
 G. A. Petersson, H. Nakatsuji, X. Li, M. Caricato, A. V. Marenich, 
 J. Bloino, B. G. Janesko, R. Gomperts, B. Mennucci, H. P. Hratchian, 
 J. V. Ortiz, A. F. Izmaylov, J. L. Sonnenberg, D. Williams-Young, 
 F. Ding, F. Lipparini, F. Egidi, J. Goings, B. Peng, A. Petrone, 
 T. Henderson, D. Ranasinghe, V. G. Zakrzewski, J. Gao, N. Rega, 
 G. Zheng, W. Liang, M. Hada, M. Ehara, K. Toyota, R. Fukuda, 
 J. Hasegawa, M. Ishida, T. Nakajima, Y. Honda, O. Kitao, H. Nakai, 
 T. Vreven, K. Throssell, J. A. Montgomery, Jr., J. E. Peralta, 
 F. Ogliaro, M. J. Bearpark, J. J. Heyd, E. N. Brothers, K. N. Kudin, 
 V. N. Staroverov, T. A. Keith, R. Kobayashi, J. Normand, 
 K. Raghavachari, A. P. Rendell, J. C. Burant, S. S. Iyengar, 
 J. Tomasi, M. Cossi, J. M. Millam, M. Klene, C. Adamo, R. Cammi, 
 J. W. Ochterski, R. L. Martin, K. Morokuma, O. Farkas, 
 J. B. Foresman, and D. J. Fox, Gaussian, Inc., Wallingford CT, 2016.
 
 ******************************************
 Gaussian 16:  ES64L-G16RevA.03 25-Dec-2016
                25-May-2025 
 ******************************************
 %nproc=1
 Will use up to    1 processors via shared memory.
 ----------------------------------------------------------------------
 #p Freq external='/mlatom/software/miniconda3/bin/python /mlatom/softw
 are/mlatom_xacs/mlatom/interfaces/gaussian_interface.py model_predict_
 kwargs'
 ----------------------------------------------------------------------
 1/10=4,18=10,30=1,38=1/1,3;
 2/12=2,17=6,18=5,40=1/2;
 3/11=9,25=1,30=1,41=9900000,43=2,71=2,140=1/1;
 4/20=17,22=2,24=3,113=1,114=1/2;
 6/7=2,8=2,9=2,10=2/1;
 7/8=1,25=1,44=-1/16;
 1/10=4,18=10,30=1/3;
 99//99;
 Leave Link    1 at Sun May 25 10:34:15 2025, MaxMem=           0 cpu:               0.0 elap:               0.0
 (Enter /mlatom/software/Gaussian/g16-avx2/l101.exe)
 ------------------------------------
 6b9c7303-d57c-4303-b8b0-ae38cc440b17
 ------------------------------------
 Symbolic Z-matrix:
 Charge =  0 Multiplicity = 1
 C                    -0.44695   1.43699   0.48979 
 C                    -1.32267   0.70358  -0.29001 
 H                    -0.1264    1.06772   1.45721 
 H                    -0.39403   2.51738   0.3795 
 H                    -1.8702    1.21351  -1.08137 
 C                    -1.32263  -0.70363  -0.29 
 C                    -0.44687  -1.437     0.48981 
 H                    -1.87014  -1.2136   -1.08136 
 H                    -0.39391  -2.51739   0.37953 
 H                    -0.12634  -1.06771   1.45723 
 C                     1.57643   0.69306  -0.22737 
 C                     1.57644  -0.69301  -0.2274 
 H                     2.07552   1.23575   0.57038 
 H                     1.47371   1.23604  -1.16015 
 H                     1.47373  -1.23595  -1.1602 
 H                     2.07556  -1.23571   0.57032 
 
 ITRead=  0  0  0  0  0  0  0  0  0  0  0  0  0  0  0  0
 MicOpt= -1 -1 -1 -1 -1 -1 -1 -1 -1 -1 -1 -1 -1 -1 -1 -1
 NAtoms=     16 NQM=       16 NQMF=       0 NMMI=      0 NMMIF=      0
                NMic=       0 NMicF=      0.
                    Isotopes and Nuclear Properties:
 (Nuclear quadrupole moments (NQMom) in fm**2, nuclear magnetic moments (NMagM)
  in nuclear magnetons)

  Atom         1           2           3           4           5           6           7           8           9          10
 IAtWgt=          12          12           1           1           1          12          12           1           1           1
 AtmWgt=  12.0000000  12.0000000   1.0078250   1.0078250   1.0078250  12.0000000  12.0000000   1.0078250   1.0078250   1.0078250
 NucSpn=           0           0           1           1           1           0           0           1           1           1
 AtZEff=  -0.0000000  -0.0000000  -0.0000000  -0.0000000  -0.0000000  -0.0000000  -0.0000000  -0.0000000  -0.0000000  -0.0000000
 NQMom=    0.0000000   0.0000000   0.0000000   0.0000000   0.0000000   0.0000000   0.0000000   0.0000000   0.0000000   0.0000000
 NMagM=    0.0000000   0.0000000   2.7928460   2.7928460   2.7928460   0.0000000   0.0000000   2.7928460   2.7928460   2.7928460
 AtZNuc=   6.0000000   6.0000000   1.0000000   1.0000000   1.0000000   6.0000000   6.0000000   1.0000000   1.0000000   1.0000000

  Atom        11          12          13          14          15          16
 IAtWgt=          12          12           1           1           1           1
 AtmWgt=  12.0000000  12.0000000   1.0078250   1.0078250   1.0078250   1.0078250
 NucSpn=           0           0           1           1           1           1
 AtZEff=  -0.0000000  -0.0000000  -0.0000000  -0.0000000  -0.0000000  -0.0000000
 NQMom=    0.0000000   0.0000000   0.0000000   0.0000000   0.0000000   0.0000000
 NMagM=    0.0000000   0.0000000   2.7928460   2.7928460   2.7928460   2.7928460
 AtZNuc=   6.0000000   6.0000000   1.0000000   1.0000000   1.0000000   1.0000000
 Leave Link  101 at Sun May 25 10:34:15 2025, MaxMem=   104857600 cpu:               0.1 elap:               0.2
 (Enter /mlatom/software/Gaussian/g16-avx2/l103.exe)

 GradGradGradGradGradGradGradGradGradGradGradGradGradGradGradGradGradGrad
 Berny optimization.
 Initialization pass.
 Trust Radius=3.00D-01 FncErr=1.00D-07 GrdErr=1.00D-07 EigMax=2.50D+02 EigMin=1.00D-04
 Number of steps in this run=      2 maximum allowed number of steps=      2.
 GradGradGradGradGradGradGradGradGradGradGradGradGradGradGradGradGradGrad

 Leave Link  103 at Sun May 25 10:34:15 2025, MaxMem=   104857600 cpu:               0.0 elap:               0.1
 (Enter /mlatom/software/Gaussian/g16-avx2/l202.exe)
                          Input orientation:                          
 ---------------------------------------------------------------------
 Center     Atomic      Atomic             Coordinates (Angstroms)
 Number     Number       Type             X           Y           Z
 ---------------------------------------------------------------------
      1          6           0       -0.446946    1.436991    0.489791
      2          6           0       -1.322669    0.703576   -0.290007
      3          1           0       -0.126396    1.067722    1.457215
      4          1           0       -0.394030    2.517383    0.379496
      5          1           0       -1.870202    1.213506   -1.081374
      6          6           0       -1.322634   -0.703632   -0.290000
      7          6           0       -0.446872   -1.436995    0.489807
      8          1           0       -1.870141   -1.213598   -1.081360
      9          1           0       -0.393911   -2.517387    0.379530
     10          1           0       -0.126337   -1.067714    1.457232
     11          6           0        1.576430    0.693061   -0.227373
     12          6           0        1.576442   -0.693007   -0.227400
     13          1           0        2.075518    1.235747    0.570383
     14          1           0        1.473709    1.236038   -1.160152
     15          1           0        1.473725   -1.235946   -1.160203
     16          1           0        2.075561   -1.235710    0.570321
 ---------------------------------------------------------------------
                    Distance matrix (angstroms):
                    1          2          3          4          5
     1  C    0.000000
     2  C    1.383067   0.000000
     3  H    1.083984   2.148594   0.000000
     4  H    1.087296   2.144878   1.826095   0.000000
     5  H    2.131704   1.089074   3.083268   2.452207   0.000000
     6  C    2.440731   1.407208   2.760695   3.418401   2.145116
     7  C    2.873986   2.440733   2.704106   3.956269   3.394058
     8  H    3.394057   2.145116   3.832679   4.270038   2.427104
     9  H    3.956270   3.418402   3.753129   5.034770   4.270039
    10  H    2.704123   2.760711   2.135436   3.753145   3.832694
    11  C    2.271961   2.899794   2.424422   2.753026   3.588795
    12  C    3.024129   3.218572   2.972836   3.815454   4.030312
    13  H    2.531763   3.545582   2.379734   2.788852   4.277558
    14  H    2.540002   2.976641   3.072340   2.738760   3.344914
    15  H    3.681854   3.512664   3.836424   4.466169   4.145827
    16  H    3.675984   4.006115   3.307718   4.496777   4.929077
                    6          7          8          9         10
     6  C    0.000000
     7  C    1.383069   0.000000
     8  H    1.089073   2.131706   0.000000
     9  H    2.144878   1.087296   2.452207   0.000000
    10  H    2.148604   1.083984   3.083275   1.826085   0.000000
    11  C    3.218578   3.024108   4.030322   3.815436   2.972816
    12  C    2.899771   2.271938   3.588760   2.753002   2.424427
    13  H    4.006107   3.675935   4.929075   4.496724   3.307659
    14  H    3.512694   3.681861   4.145872   4.466187   3.836420
    15  H    2.976615   2.540009   3.344871   2.738784   3.072371
    16  H    3.545558   2.531731   4.277511   2.788797   2.379745
                   11         12         13         14         15
    11  C    0.000000
    12  C    1.386068   0.000000
    13  H    1.086283   2.146073   0.000000
    14  H    1.084183   2.145179   1.832191   0.000000
    15  H    2.145178   1.084183   3.076743   2.471984   0.000000
    16  H    2.146067   1.086281   2.471458   3.076736   1.832190
                   16
    16  H    0.000000
 Stoichiometry    C6H10
 Framework group  C1[X(C6H10)]
 Deg. of freedom    42
 Full point group                 C1      NOp   1
 Largest Abelian subgroup         C1      NOp   1
 Largest concise Abelian subgroup C1      NOp   1
                         Standard orientation:                         
 ---------------------------------------------------------------------
 Center     Atomic      Atomic             Coordinates (Angstroms)
 Number     Number       Type             X           Y           Z
 ---------------------------------------------------------------------
      1          6           0        0.446946   -1.436991    0.489791
      2          6           0        1.322669   -0.703576   -0.290007
      3          1           0        0.126396   -1.067722    1.457215
      4          1           0        0.394030   -2.517383    0.379496
      5          1           0        1.870202   -1.213506   -1.081374
      6          6           0        1.322634    0.703632   -0.290000
      7          6           0        0.446872    1.436995    0.489807
      8          1           0        1.870141    1.213598   -1.081360
      9          1           0        0.393911    2.517387    0.379530
     10          1           0        0.126337    1.067714    1.457232
     11          6           0       -1.576430   -0.693061   -0.227373
     12          6           0       -1.576442    0.693007   -0.227400
     13          1           0       -2.075518   -1.235747    0.570383
     14          1           0       -1.473709   -1.236038   -1.160152
     15          1           0       -1.473725    1.235946   -1.160203
     16          1           0       -2.075561    1.235710    0.570321
 ---------------------------------------------------------------------
 Rotational constants (GHZ):           4.3407502           3.4585119           2.2558698
 Leave Link  202 at Sun May 25 10:34:15 2025, MaxMem=   104857600 cpu:               0.0 elap:               0.1
 (Enter /mlatom/software/Gaussian/g16-avx2/l301.exe)
 Standard basis: STO-3G (5D, 7F)
 Ernie: Thresh=  0.10000D-02 Tol=  0.10000D-05 Strict=F.
 There are    40 symmetry adapted cartesian basis functions of A   symmetry.
 There are    40 symmetry adapted basis functions of A   symmetry.
    40 basis functions,   120 primitive gaussians,    40 cartesian basis functions
    23 alpha electrons       23 beta electrons
       nuclear repulsion energy       223.9905785063 Hartrees.
 IExCor=    0 DFT=F Ex=HF Corr=None ExCW=0 ScaHFX=  1.000000
 ScaDFX=  1.000000  1.000000  1.000000  1.000000 ScalE2=  1.000000  1.000000
 IRadAn=      5 IRanWt=     -1 IRanGd=            0 ICorTp=0 IEmpDi=  4
 NAtoms=   16 NActive=   16 NUniq=   16 SFac= 1.00D+00 NAtFMM=   60 NAOKFM=F Big=F
 Integral buffers will be    131072 words long.
 Raffenetti 1 integral format.
 Two-electron integral symmetry is turned on.
 Leave Link  301 at Sun May 25 10:34:15 2025, MaxMem=   104857600 cpu:               0.0 elap:               0.1
 (Enter /mlatom/software/Gaussian/g16-avx2/l402.exe)
 External calculation of energy, first and second derivatives.
 Running external command "/mlatom/software/miniconda3/bin/python /mlatom/software/mlatom_xacs/mlatom/interfaces/gaussian_interface.py model_predict_kwargs R"
         input file       "/mlatom/home/huangyh/projects/delta_learning/paper/revision1/Starting_from_ub3lyp_d4/da/b3lyp/irc/ts/Gau-91018.EIn"
         output file      "/mlatom/home/huangyh/projects/delta_learning/paper/revision1/Starting_from_ub3lyp_d4/da/b3lyp/irc/ts/Gau-91018.EOu"
         message file     "/mlatom/home/huangyh/projects/delta_learning/paper/revision1/Starting_from_ub3lyp_d4/da/b3lyp/irc/ts/Gau-91018.EMs"
         fchk file        "/mlatom/home/huangyh/projects/delta_learning/paper/revision1/Starting_from_ub3lyp_d4/da/b3lyp/irc/ts/Gau-91018.EFC"
         mat. el file     "/mlatom/home/huangyh/projects/delta_learning/paper/revision1/Starting_from_ub3lyp_d4/da/b3lyp/irc/ts/Gau-91018.EUF"
 Recovered energy= -234.543885600     dipole=     -0.394700000000      0.000000000000      0.006500000000
 Energy=    -234.543886     NIter=   0.
 Dipole moment=      -0.394700       0.000000       0.006500
 Leave Link  402 at Sun May 25 10:34:36 2025, MaxMem=   104857600 cpu:               0.0 elap:              20.7
 (Enter /mlatom/software/Gaussian/g16-avx2/l601.exe)
 Leave Link  601 at Sun May 25 10:34:36 2025, MaxMem=   104857600 cpu:               0.0 elap:               0.1
 (Enter /mlatom/software/Gaussian/g16-avx2/l716.exe)
 Dipole        =-3.94700000D-01 0.00000000D+00 6.50000000D-03
 Full mass-weighted force constant matrix:
 Low frequencies --- -526.8482  -10.1915   -1.9767   -0.2020   -0.0404    0.1722
 Low frequencies ---    7.0536  136.1050  201.4923
 ******    1 imaginary frequencies (negative Signs) ****** 
 Diagonal vibrational polarizability:
        2.9322582       3.1376053       0.8392731
 Harmonic frequencies (cm**-1), IR intensities (KM/Mole), Raman scattering
 activities (A**4/AMU), depolarization ratios for plane and unpolarized
 incident light, reduced masses (AMU), force constants (mDyne/A),
 and normal coordinates:
                      1                      2                      3
                      A                      A                      A
 Frequencies --   -526.8482               136.1042               201.4912
 Red. masses --      8.2217                 2.2120                 3.8194
 Frc consts  --      1.3446                 0.0241                 0.0914
 IR Inten    --      5.7962                 0.7836                 0.9355
  Atom  AN      X      Y      Z        X      Y      Z        X      Y      Z
     1   6    -0.36   0.12  -0.11     0.10  -0.07  -0.05     0.21  -0.11   0.11
     2   6    -0.01   0.07  -0.02     0.03   0.02  -0.04     0.09  -0.05   0.06
     3   1     0.18  -0.04   0.14     0.10  -0.13  -0.02    -0.01  -0.05   0.01
     4   1    -0.24   0.10  -0.06     0.11  -0.06  -0.13     0.30  -0.12   0.16
     5   1     0.09  -0.01   0.09     0.04   0.09  -0.08     0.20  -0.04   0.13
     6   6    -0.01  -0.07  -0.02    -0.03   0.02   0.04    -0.09  -0.05  -0.06
     7   6    -0.36  -0.12  -0.11    -0.10  -0.07   0.05    -0.21  -0.11  -0.11
     8   1     0.09   0.01   0.09    -0.04   0.09   0.08    -0.20  -0.04  -0.13
     9   1    -0.24  -0.10  -0.06    -0.11  -0.06   0.13    -0.30  -0.12  -0.16
    10   1     0.18   0.04   0.14    -0.10  -0.13   0.02     0.01  -0.05  -0.01
    11   6     0.38  -0.10   0.12    -0.09   0.05   0.16    -0.06   0.16  -0.13
    12   6     0.38   0.10   0.12     0.09   0.05  -0.16     0.06   0.16   0.13
    13   1    -0.09   0.05  -0.06    -0.06   0.30   0.34    -0.04   0.01  -0.22
    14   1    -0.12   0.04  -0.02    -0.20  -0.19   0.29     0.09   0.29  -0.19
    15   1    -0.12  -0.04  -0.02     0.20  -0.19  -0.29    -0.09   0.29   0.19
    16   1    -0.09  -0.05  -0.06     0.06   0.30  -0.34     0.04   0.01   0.22
                      4                      5                      6
                      A                      A                      A
 Frequencies --    283.8770               375.1509               405.1983
 Red. masses --      2.7346                 2.5515                 2.9199
 Frc consts  --      0.1298                 0.2116                 0.2825
 IR Inten    --      0.3234                 0.1115                 2.3182
  Atom  AN      X      Y      Z        X      Y      Z        X      Y      Z
     1   6     0.05   0.04   0.16    -0.02   0.22   0.03    -0.04   0.04  -0.03
     2   6    -0.16  -0.00  -0.09     0.10   0.00  -0.05     0.02   0.06   0.05
     3   1     0.14   0.14   0.16     0.00   0.47  -0.06    -0.29   0.09  -0.13
     4   1     0.04   0.03   0.27    -0.06   0.20   0.33     0.12   0.03   0.07
     5   1    -0.37  -0.03  -0.22     0.15  -0.12   0.06     0.14   0.02   0.16
     6   6    -0.16   0.00  -0.09     0.10  -0.00  -0.05    -0.02   0.06  -0.05
     7   6     0.05  -0.04   0.16    -0.02  -0.22   0.03     0.04   0.04   0.03
     8   1    -0.37   0.03  -0.22     0.15   0.12   0.06    -0.14   0.02  -0.16
     9   1     0.04  -0.03   0.27    -0.06  -0.20   0.33    -0.12   0.03  -0.07
    10   1     0.14  -0.14   0.16     0.00  -0.47  -0.06     0.29   0.09   0.13
    11   6     0.10   0.00  -0.07    -0.08  -0.00  -0.01    -0.25  -0.10  -0.07
    12   6     0.10  -0.00  -0.07    -0.08   0.00  -0.01     0.25  -0.10   0.07
    13   1    -0.01  -0.00  -0.14    -0.04  -0.01   0.01    -0.31  -0.04  -0.06
    14   1     0.27  -0.00  -0.05    -0.10  -0.01  -0.01    -0.35  -0.09  -0.09
    15   1     0.27   0.00  -0.05    -0.10   0.01  -0.01     0.35  -0.09   0.09
    16   1    -0.01   0.00  -0.14    -0.04   0.01   0.01     0.31  -0.04   0.06
                      7                      8                      9
                      A                      A                      A
 Frequencies --    491.0340               590.0546               626.8137
 Red. masses --      2.5058                 1.9945                 1.0931
 Frc consts  --      0.3560                 0.4091                 0.2530
 IR Inten    --      0.6452                 0.0114                 1.6380
  Atom  AN      X      Y      Z        X      Y      Z        X      Y      Z
     1   6     0.08   0.02   0.09     0.03   0.07  -0.06    -0.00   0.00  -0.02
     2   6    -0.14   0.00  -0.14     0.10  -0.11  -0.11     0.02   0.00  -0.01
     3   1     0.31   0.09   0.14     0.07   0.48  -0.21     0.02  -0.03   0.00
     4   1    -0.06   0.03   0.09    -0.12   0.04   0.33    -0.02   0.01  -0.06
     5   1    -0.40   0.04  -0.34     0.21  -0.02  -0.10     0.04  -0.01   0.00
     6   6     0.14   0.00   0.14    -0.10  -0.11   0.11     0.02  -0.00  -0.01
     7   6    -0.08   0.02  -0.09    -0.03   0.07   0.06    -0.00  -0.00  -0.02
     8   1     0.40   0.04   0.34    -0.21  -0.02   0.10     0.04   0.01   0.00
     9   1     0.06   0.03  -0.09     0.12   0.04  -0.33    -0.02  -0.01  -0.06
    10   1    -0.31   0.09  -0.14    -0.07   0.48   0.21     0.02   0.03   0.00
    11   6    -0.09  -0.03  -0.05    -0.00   0.00  -0.00    -0.03  -0.00   0.05
    12   6     0.09  -0.03   0.05     0.00   0.00   0.00    -0.03   0.00   0.05
    13   1    -0.08  -0.06  -0.07     0.03   0.01   0.02    -0.45  -0.06  -0.25
    14   1    -0.03  -0.00  -0.06    -0.03  -0.00  -0.00     0.47   0.06   0.07
    15   1     0.03  -0.00   0.06     0.03  -0.00   0.00     0.47  -0.06   0.07
    16   1     0.08  -0.06   0.07    -0.03   0.01  -0.02    -0.45   0.06  -0.25
                     10                     11                     12
                      A                      A                      A
 Frequencies --    696.0434               782.3314               814.9754
 Red. masses --      1.2105                 1.5038                 1.1189
 Frc consts  --      0.3455                 0.5423                 0.4379
 IR Inten    --     24.0450                 0.5013                 0.1771
  Atom  AN      X      Y      Z        X      Y      Z        X      Y      Z
     1   6     0.00  -0.04  -0.01     0.01   0.04   0.02    -0.00   0.01  -0.03
     2   6    -0.07   0.00  -0.04     0.12  -0.03   0.06    -0.02  -0.03   0.01
     3   1    -0.19   0.11  -0.14     0.30  -0.13   0.18    -0.31   0.15  -0.19
     4   1     0.32  -0.09   0.28    -0.43   0.10  -0.31    -0.28   0.03  -0.06
     5   1     0.37  -0.05   0.29    -0.12   0.02  -0.14    -0.03  -0.02   0.00
     6   6    -0.07  -0.00  -0.04    -0.12  -0.03  -0.06    -0.02   0.03   0.01
     7   6     0.00   0.04  -0.01    -0.01   0.04  -0.02    -0.00  -0.01  -0.03
     8   1     0.37   0.05   0.29     0.12   0.02   0.14    -0.03   0.02   0.00
     9   1     0.32   0.09   0.28     0.43   0.10   0.31    -0.28  -0.03  -0.06
    10   1    -0.19  -0.11  -0.14    -0.30  -0.13  -0.18    -0.31  -0.15  -0.19
    11   6     0.02  -0.00   0.02    -0.04  -0.01  -0.01     0.02   0.04   0.02
    12   6     0.02   0.00   0.02     0.04  -0.01   0.01     0.02  -0.04   0.02
    13   1    -0.02   0.01  -0.00    -0.10  -0.01  -0.05     0.33  -0.13   0.09
    14   1     0.02   0.00   0.01    -0.02   0.01  -0.03     0.34   0.05   0.06
    15   1     0.02  -0.00   0.01     0.02   0.01   0.03     0.34  -0.05   0.06
    16   1    -0.02  -0.01  -0.00     0.10  -0.01   0.05     0.33   0.13   0.09
                     13                     14                     15
                      A                      A                      A
 Frequencies --    856.6218               911.3022               949.9842
 Red. masses --      1.0294                 1.1524                 1.3723
 Frc consts  --      0.4450                 0.5639                 0.7297
 IR Inten    --      0.2566                14.1653                17.3448
  Atom  AN      X      Y      Z        X      Y      Z        X      Y      Z
     1   6    -0.00  -0.00   0.00    -0.03  -0.00  -0.01    -0.03  -0.09  -0.03
     2   6     0.00   0.01   0.00     0.02  -0.00   0.01     0.06  -0.06   0.03
     3   1     0.07  -0.02   0.04     0.26  -0.05   0.12    -0.04   0.28  -0.18
     4   1     0.08  -0.01   0.03     0.27  -0.04   0.16    -0.07  -0.13   0.42
     5   1    -0.00   0.01  -0.00    -0.03   0.03  -0.05    -0.23   0.10  -0.27
     6   6     0.00  -0.01   0.00    -0.02  -0.00  -0.01     0.06   0.06   0.03
     7   6    -0.00   0.00   0.00     0.03  -0.00   0.01    -0.03   0.09  -0.03
     8   1    -0.00  -0.01  -0.00     0.03   0.03   0.05    -0.23  -0.10  -0.27
     9   1     0.08   0.01   0.03    -0.27  -0.04  -0.16    -0.07   0.13   0.42
    10   1     0.07   0.02   0.04    -0.26  -0.05  -0.12    -0.04  -0.28  -0.18
    11   6    -0.01  -0.01   0.03     0.07  -0.01   0.02     0.02  -0.01   0.01
    12   6    -0.01   0.01   0.03    -0.07  -0.01  -0.02     0.02   0.01   0.01
    13   1     0.13  -0.43  -0.18    -0.35   0.11  -0.14    -0.14   0.04  -0.05
    14   1    -0.08   0.43  -0.24    -0.35   0.12  -0.11    -0.10   0.04  -0.03
    15   1    -0.08  -0.43  -0.24     0.35   0.12   0.11    -0.10  -0.04  -0.03
    16   1     0.13   0.43  -0.18     0.35   0.11   0.14    -0.14  -0.04  -0.05
                     16                     17                     18
                      A                      A                      A
 Frequencies --    971.3761               984.0359               994.3483
 Red. masses --      1.2904                 1.3075                 1.1409
 Frc consts  --      0.7174                 0.7460                 0.6646
 IR Inten    --      0.1077                 2.7666                 1.9611
  Atom  AN      X      Y      Z        X      Y      Z        X      Y      Z
     1   6    -0.01   0.07  -0.05    -0.06   0.00  -0.04    -0.04   0.01  -0.02
     2   6    -0.00   0.05   0.06     0.04  -0.01   0.05    -0.00  -0.01  -0.01
     3   1    -0.19  -0.07  -0.07     0.20  -0.02   0.07     0.19  -0.05   0.08
     4   1     0.55   0.03   0.01     0.32  -0.04   0.19     0.15  -0.01   0.06
     5   1    -0.30   0.07  -0.16    -0.26   0.04  -0.19     0.11   0.01   0.06
     6   6    -0.00  -0.05   0.06    -0.04  -0.01  -0.05     0.00  -0.01   0.01
     7   6    -0.01  -0.07  -0.05     0.06   0.00   0.04     0.04   0.01   0.02
     8   1    -0.30  -0.07  -0.16     0.26   0.04   0.19    -0.11   0.01  -0.06
     9   1     0.55  -0.03   0.01    -0.32  -0.04  -0.19    -0.15  -0.01  -0.06
    10   1    -0.19   0.07  -0.07    -0.20  -0.02  -0.07    -0.19  -0.05  -0.08
    11   6    -0.00   0.00   0.01    -0.05   0.02  -0.04    -0.05   0.01   0.04
    12   6    -0.00  -0.00   0.01     0.05   0.02   0.04     0.05   0.01  -0.04
    13   1     0.06  -0.01   0.03     0.40  -0.06   0.17    -0.27  -0.06  -0.15
    14   1     0.11  -0.04   0.05     0.03  -0.07   0.02     0.54  -0.01   0.12
    15   1     0.11   0.04   0.05    -0.03  -0.07  -0.02    -0.54  -0.01  -0.12
    16   1     0.06   0.01   0.03    -0.40  -0.06  -0.17     0.27  -0.06   0.15
                     19                     20                     21
                      A                      A                      A
 Frequencies --   1012.2827              1016.8684              1110.0626
 Red. masses --      1.1871                 1.1260                 1.6472
 Frc consts  --      0.7167                 0.6860                 1.1959
 IR Inten    --     27.5850                 5.1374                 1.5849
  Atom  AN      X      Y      Z        X      Y      Z        X      Y      Z
     1   6    -0.06  -0.02  -0.03     0.02  -0.02  -0.00    -0.07  -0.03   0.05
     2   6     0.01  -0.01   0.01     0.04   0.01   0.04     0.08  -0.10  -0.07
     3   1     0.45   0.01   0.14    -0.34   0.11  -0.18    -0.19  -0.25   0.10
     4   1     0.08  -0.06   0.19    -0.00  -0.03   0.08     0.15  -0.05   0.02
     5   1     0.08   0.06   0.01    -0.39   0.08  -0.30    -0.16  -0.55   0.04
     6   6     0.01   0.01   0.01    -0.04   0.01  -0.04     0.08   0.10  -0.07
     7   6    -0.06   0.02  -0.03    -0.02  -0.02   0.00    -0.07   0.03   0.05
     8   1     0.08  -0.06   0.01     0.39   0.08   0.30    -0.16   0.55   0.04
     9   1     0.08   0.06   0.19     0.00  -0.03  -0.08     0.15   0.05   0.02
    10   1     0.45  -0.01   0.14     0.34   0.11   0.18    -0.19   0.25   0.10
    11   6    -0.05  -0.00  -0.02     0.02  -0.00   0.03    -0.01  -0.01  -0.00
    12   6    -0.05   0.00  -0.02    -0.02  -0.00  -0.03    -0.01   0.01  -0.00
    13   1     0.28  -0.09   0.11    -0.22   0.02  -0.10     0.07  -0.03   0.03
    14   1     0.30  -0.13   0.09     0.13   0.02   0.03     0.05  -0.03   0.02
    15   1     0.30   0.13   0.09    -0.13   0.02  -0.03     0.05   0.03   0.02
    16   1     0.28   0.09   0.11     0.22   0.02   0.10     0.07   0.03   0.03
                     22                     23                     24
                      A                      A                      A
 Frequencies --   1114.4083              1255.9615              1260.3029
 Red. masses --      1.5288                 1.4096                 1.7982
 Frc consts  --      1.1187                 1.3101                 1.6828
 IR Inten    --      0.4874                 0.0464                 0.1205
  Atom  AN      X      Y      Z        X      Y      Z        X      Y      Z
     1   6     0.03   0.12   0.00    -0.02   0.00   0.02     0.00   0.02  -0.05
     2   6     0.02  -0.08  -0.05     0.01  -0.00  -0.02    -0.04  -0.04   0.04
     3   1    -0.23  -0.21   0.03    -0.04  -0.07   0.04     0.27   0.08   0.01
     4   1     0.38   0.13  -0.31     0.01  -0.00   0.01     0.07   0.02  -0.02
     5   1    -0.13  -0.32   0.01     0.06   0.10  -0.06    -0.09  -0.26   0.15
     6   6    -0.02  -0.08   0.05    -0.01  -0.00   0.02    -0.04   0.04   0.04
     7   6    -0.03   0.12  -0.00     0.02   0.00  -0.02     0.00  -0.02  -0.05
     8   1     0.13  -0.32  -0.01    -0.06   0.10   0.06    -0.09   0.26   0.15
     9   1    -0.38   0.13   0.31    -0.01  -0.00  -0.01     0.07  -0.02  -0.02
    10   1     0.23  -0.21  -0.03     0.04  -0.07  -0.04     0.27  -0.08   0.01
    11   6     0.00  -0.00   0.00     0.04  -0.00  -0.12     0.02   0.17   0.00
    12   6    -0.00  -0.00  -0.00    -0.04  -0.00   0.12     0.02  -0.17   0.00
    13   1    -0.01   0.01  -0.00    -0.14   0.45   0.08    -0.07   0.36   0.06
    14   1    -0.01  -0.00   0.00     0.09  -0.44   0.15    -0.00   0.37  -0.10
    15   1     0.01  -0.00  -0.00    -0.09  -0.44  -0.15    -0.00  -0.37  -0.10
    16   1     0.01   0.01   0.00     0.14   0.45  -0.08    -0.07  -0.36   0.06
                     25                     26                     27
                      A                      A                      A
 Frequencies --   1280.9976              1326.6275              1454.2433
 Red. masses --      1.4687                 1.5005                 1.2165
 Frc consts  --      1.4200                 1.5559                 1.5158
 IR Inten    --      0.2662                 1.5369                 0.8157
  Atom  AN      X      Y      Z        X      Y      Z        X      Y      Z
     1   6    -0.06   0.00   0.09    -0.06  -0.00   0.06     0.01   0.00  -0.02
     2   6     0.05  -0.02  -0.08     0.05   0.01  -0.06     0.05   0.06  -0.05
     3   1    -0.25  -0.27   0.14    -0.19  -0.23   0.11    -0.10  -0.36   0.10
     4   1     0.05  -0.01   0.04     0.03  -0.02   0.08    -0.20  -0.05   0.40
     5   1     0.23   0.42  -0.24     0.21   0.41  -0.22    -0.11  -0.34   0.09
     6   6    -0.05  -0.02   0.08     0.05  -0.01  -0.06    -0.05   0.06   0.05
     7   6     0.06   0.00  -0.09    -0.06   0.00   0.06    -0.01   0.00   0.02
     8   1    -0.23   0.42   0.24     0.21  -0.41  -0.22     0.11  -0.34  -0.09
     9   1    -0.05  -0.01  -0.04     0.03   0.02   0.08     0.20  -0.05  -0.40
    10   1     0.25  -0.27  -0.14    -0.19   0.23   0.11     0.10  -0.36  -0.10
    11   6    -0.01   0.00   0.03    -0.01   0.09  -0.00    -0.00   0.00   0.00
    12   6     0.01   0.00  -0.03    -0.01  -0.09  -0.00     0.00   0.00  -0.00
    13   1     0.08  -0.13  -0.00     0.05   0.20   0.09     0.01  -0.00   0.00
    14   1    -0.02   0.10  -0.03     0.08   0.21  -0.05     0.01   0.01  -0.00
    15   1     0.02   0.10   0.03     0.08  -0.21  -0.05    -0.01   0.01   0.00
    16   1    -0.08  -0.13   0.00     0.05  -0.20   0.09    -0.01  -0.00  -0.00
                     28                     29                     30
                      A                      A                      A
 Frequencies --   1492.8287              1513.9653              1567.6790
 Red. masses --      1.1082                 1.6248                 1.4395
 Frc consts  --      1.4551                 2.1942                 2.0844
 IR Inten    --      1.1845                 6.8914                 2.5898
  Atom  AN      X      Y      Z        X      Y      Z        X      Y      Z
     1   6    -0.00   0.00   0.00    -0.03   0.01   0.04     0.03   0.05  -0.05
     2   6    -0.00  -0.00  -0.00    -0.02  -0.16   0.01    -0.02  -0.05   0.02
     3   1    -0.01  -0.00  -0.00     0.08   0.30  -0.05    -0.03  -0.32   0.08
     4   1     0.00   0.00  -0.00     0.27   0.05  -0.41    -0.09   0.02   0.25
     5   1     0.00   0.01  -0.00     0.15   0.22  -0.13     0.04   0.06  -0.01
     6   6     0.00  -0.00   0.00    -0.02   0.16   0.01    -0.02   0.05   0.02
     7   6     0.00   0.00  -0.00    -0.03  -0.01   0.04     0.03  -0.05  -0.05
     8   1    -0.00   0.01   0.00     0.15  -0.22  -0.13     0.04  -0.06  -0.01
     9   1    -0.00   0.00   0.00     0.27  -0.05  -0.41    -0.09  -0.02   0.25
    10   1     0.01  -0.00   0.00     0.08  -0.30  -0.05    -0.03   0.32   0.08
    11   6    -0.01  -0.07  -0.00     0.02   0.01   0.00     0.02   0.10   0.01
    12   6     0.01  -0.07   0.00     0.02  -0.01   0.00     0.02  -0.10   0.01
    13   1     0.02   0.38   0.31    -0.02  -0.10  -0.10    -0.03  -0.27  -0.27
    14   1     0.19   0.40  -0.24    -0.08  -0.10   0.06    -0.18  -0.27   0.20
    15   1    -0.19   0.40   0.24    -0.08   0.10   0.06    -0.18   0.27   0.20
    16   1    -0.02   0.38  -0.31    -0.02   0.10  -0.09    -0.03   0.27  -0.27
                     31                     32                     33
                      A                      A                      A
 Frequencies --   1612.9553              1616.7564              3152.4154
 Red. masses --      2.4756                 2.3699                 1.0816
 Frc consts  --      3.7947                 3.6497                 6.3327
 IR Inten    --      1.3029                 0.6295                 4.0065
  Atom  AN      X      Y      Z        X      Y      Z        X      Y      Z
     1   6     0.06   0.08  -0.06    -0.10  -0.10   0.10     0.00   0.01  -0.00
     2   6    -0.06  -0.16   0.04     0.11   0.10  -0.11     0.03  -0.03  -0.04
     3   1    -0.06  -0.35   0.07     0.06   0.38  -0.03    -0.02   0.03   0.06
     4   1    -0.07   0.06   0.21     0.16  -0.08  -0.33    -0.01  -0.20  -0.02
     5   1     0.10   0.14  -0.05    -0.09  -0.37   0.04    -0.34   0.31   0.49
     6   6    -0.06   0.16   0.04    -0.11   0.10   0.11    -0.03  -0.03   0.04
     7   6     0.06  -0.08  -0.06     0.10  -0.10  -0.10    -0.00   0.01   0.00
     8   1     0.10  -0.14  -0.05     0.09  -0.37  -0.04     0.34   0.31  -0.49
     9   1    -0.07  -0.06   0.21    -0.16  -0.08   0.33     0.01  -0.20   0.02
    10   1    -0.06   0.35   0.07    -0.06   0.38   0.03     0.02   0.03  -0.06
    11   6    -0.00  -0.15  -0.00    -0.00   0.00  -0.00    -0.00  -0.00   0.00
    12   6    -0.00   0.15  -0.00     0.00   0.00   0.00     0.00  -0.00  -0.00
    13   1    -0.04   0.22   0.24     0.01  -0.00   0.01     0.02   0.02  -0.03
    14   1     0.12   0.22  -0.21     0.01   0.00   0.00    -0.00   0.01   0.02
    15   1     0.12  -0.22  -0.21    -0.01   0.00  -0.00     0.00   0.01  -0.02
    16   1    -0.04  -0.22   0.24    -0.01  -0.00  -0.01    -0.02   0.02   0.03
                     34                     35                     36
                      A                      A                      A
 Frequencies --   3161.9164              3162.8092              3170.0770
 Red. masses --      1.0534                 1.0647                 1.0617
 Frc consts  --      6.2048                 6.2754                 6.2864
 IR Inten    --      3.0160                23.4113                26.8883
  Atom  AN      X      Y      Z        X      Y      Z        X      Y      Z
     1   6    -0.01  -0.01   0.01     0.01   0.03  -0.02    -0.02  -0.03   0.03
     2   6     0.01  -0.00  -0.01     0.02  -0.02  -0.02     0.01  -0.00  -0.01
     3   1     0.04  -0.05  -0.13    -0.10   0.12   0.29     0.12  -0.15  -0.35
     4   1     0.01   0.15   0.02    -0.02  -0.48  -0.06     0.02   0.51   0.06
     5   1    -0.05   0.05   0.07    -0.19   0.18   0.28    -0.08   0.07   0.12
     6   6    -0.01  -0.00   0.01     0.02   0.02  -0.02    -0.01  -0.00   0.01
     7   6     0.01  -0.01  -0.01     0.01  -0.03  -0.02     0.02  -0.03  -0.03
     8   1     0.05   0.05  -0.07    -0.19  -0.18   0.28     0.08   0.07  -0.12
     9   1    -0.01   0.15  -0.02    -0.02   0.48  -0.06    -0.02   0.51  -0.06
    10   1    -0.04  -0.05   0.13    -0.10  -0.12   0.29    -0.12  -0.15   0.35
    11   6     0.02   0.04  -0.01    -0.00  -0.01   0.00    -0.01  -0.01   0.00
    12   6    -0.02   0.04   0.01    -0.00   0.01   0.00     0.01  -0.01  -0.00
    13   1    -0.24  -0.27   0.41     0.03   0.04  -0.06     0.08   0.09  -0.13
    14   1     0.05  -0.19  -0.34    -0.01   0.03   0.05    -0.02   0.07   0.12
    15   1    -0.05  -0.19   0.34    -0.01  -0.03   0.05     0.02   0.07  -0.12
    16   1     0.24  -0.26  -0.41     0.03  -0.04  -0.06    -0.08   0.09   0.13
                     37                     38                     39
                      A                      A                      A
 Frequencies --   3174.0781              3177.1098              3238.6165
 Red. masses --      1.0664                 1.0830                 1.1144
 Frc consts  --      6.3301                 6.4410                 6.8868
 IR Inten    --     10.4080                 7.5828                 1.0406
  Atom  AN      X      Y      Z        X      Y      Z        X      Y      Z
     1   6    -0.00   0.00   0.00    -0.01  -0.02   0.02    -0.00   0.02   0.02
     2   6     0.01  -0.01  -0.01     0.03  -0.02  -0.04    -0.00   0.00   0.00
     3   1     0.01  -0.02  -0.04     0.09  -0.11  -0.26     0.06  -0.07  -0.17
     4   1     0.00  -0.01  -0.00     0.01   0.28   0.03    -0.01  -0.15  -0.01
     5   1    -0.09   0.09   0.14    -0.28   0.26   0.40     0.01  -0.01  -0.02
     6   6     0.01   0.01  -0.01     0.03   0.02  -0.04     0.00   0.00  -0.00
     7   6    -0.00  -0.00   0.00    -0.01   0.02   0.02     0.00   0.02  -0.02
     8   1    -0.09  -0.09   0.14    -0.28  -0.26   0.40    -0.01  -0.01   0.02
     9   1     0.00   0.01  -0.00     0.02  -0.28   0.03     0.01  -0.16   0.01
    10   1     0.01   0.02  -0.04     0.09   0.11  -0.26    -0.06  -0.07   0.17
    11   6     0.02   0.05  -0.00    -0.00  -0.01   0.00     0.02  -0.01  -0.06
    12   6     0.02  -0.05  -0.00    -0.00   0.01   0.00    -0.02  -0.01   0.06
    13   1    -0.24  -0.26   0.40     0.06   0.07  -0.10    -0.17  -0.19   0.27
    14   1     0.05  -0.20  -0.36    -0.01   0.05   0.09    -0.06   0.27   0.46
    15   1     0.05   0.20  -0.36    -0.01  -0.05   0.09     0.06   0.27  -0.46
    16   1    -0.24   0.26   0.40     0.06  -0.07  -0.10     0.17  -0.19  -0.27
                     40                     41                     42
                      A                      A                      A
 Frequencies --   3244.4304              3246.7911              3262.9077
 Red. masses --      1.1143                 1.1140                 1.1168
 Frc consts  --      6.9111                 6.9191                 7.0054
 IR Inten    --      8.1460                15.9476                22.3120
  Atom  AN      X      Y      Z        X      Y      Z        X      Y      Z
     1   6     0.01  -0.05  -0.04     0.01  -0.05  -0.04     0.00  -0.01  -0.01
     2   6     0.00  -0.00  -0.01     0.00  -0.00  -0.00     0.00  -0.00  -0.00
     3   1    -0.17   0.19   0.48    -0.16   0.18   0.47    -0.02   0.02   0.06
     4   1     0.03   0.42   0.04     0.02   0.38   0.03     0.00   0.05   0.00
     5   1    -0.04   0.04   0.06    -0.03   0.03   0.05    -0.00   0.00   0.01
     6   6     0.00   0.00  -0.01    -0.00  -0.00   0.00     0.00   0.00  -0.00
     7   6     0.01   0.05  -0.04    -0.01  -0.05   0.04     0.00   0.01  -0.01
     8   1    -0.04  -0.04   0.06     0.03   0.03  -0.05    -0.00  -0.00   0.01
     9   1     0.03  -0.42   0.04    -0.02   0.38  -0.03     0.00  -0.05   0.00
    10   1    -0.17  -0.19   0.49     0.16   0.18  -0.47    -0.02  -0.02   0.06
    11   6    -0.00   0.00   0.01     0.01  -0.00  -0.02     0.02  -0.01  -0.07
    12   6    -0.00  -0.00   0.01    -0.01  -0.00   0.02     0.02   0.01  -0.07
    13   1     0.02   0.02  -0.02    -0.07  -0.08   0.12    -0.19  -0.22   0.31
    14   1     0.01  -0.04  -0.07    -0.02   0.10   0.17    -0.06   0.28   0.48
    15   1     0.01   0.04  -0.07     0.02   0.10  -0.17    -0.06  -0.28   0.48
    16   1     0.02  -0.02  -0.02     0.07  -0.08  -0.12    -0.19   0.22   0.31

 -------------------
 - Thermochemistry -
 -------------------
 Temperature   298.150 Kelvin.  Pressure   1.00000 Atm.
 Atom     1 has atomic number  6 and mass  12.00000
 Atom     2 has atomic number  6 and mass  12.00000
 Atom     3 has atomic number  1 and mass   1.00783
 Atom     4 has atomic number  1 and mass   1.00783
 Atom     5 has atomic number  1 and mass   1.00783
 Atom     6 has atomic number  6 and mass  12.00000
 Atom     7 has atomic number  6 and mass  12.00000
 Atom     8 has atomic number  1 and mass   1.00783
 Atom     9 has atomic number  1 and mass   1.00783
 Atom    10 has atomic number  1 and mass   1.00783
 Atom    11 has atomic number  6 and mass  12.00000
 Atom    12 has atomic number  6 and mass  12.00000
 Atom    13 has atomic number  1 and mass   1.00783
 Atom    14 has atomic number  1 and mass   1.00783
 Atom    15 has atomic number  1 and mass   1.00783
 Atom    16 has atomic number  1 and mass   1.00783
 Molecular mass:    82.07825 amu.
 Principal axes and moments of inertia in atomic units:
                           1         2         3
     Eigenvalues --   415.76712 521.82593 800.02012
           X            0.99977  -0.00000  -0.02153
           Y            0.00000   1.00000  -0.00000
           Z            0.02153   0.00000   0.99977
 This molecule is an asymmetric top.
 Rotational symmetry number  1.
 Rotational temperatures (Kelvin)      0.20832     0.16598     0.10826
 Rotational constants (GHZ):           4.34075     3.45851     2.25587
    1 imaginary frequencies ignored.
 Zero-point vibrational energy     369035.0 (Joules/Mol)
                                   88.20148 (Kcal/Mol)
 Warning -- explicit consideration of   7 degrees of freedom as
           vibrations may cause significant error
 Vibrational temperatures:    195.82   289.90   408.44   539.76   582.99
          (Kelvin)            706.49   848.96   901.85  1001.45  1125.60
                             1172.57  1232.49  1311.16  1366.82  1397.59
                             1415.81  1430.65  1456.45  1463.05  1597.13
                             1603.38  1807.05  1813.29  1843.07  1908.72
                             2092.33  2147.85  2178.26  2255.54  2320.68
                             2326.15  4535.62  4549.29  4550.58  4561.03
                             4566.79  4571.15  4659.65  4668.01  4671.41
                             4694.60
 
 Zero-point correction=                           0.140558 (Hartree/Particle)
 Thermal correction to Energy=                    0.146980
 Thermal correction to Enthalpy=                  0.147924
 Thermal correction to Gibbs Free Energy=         0.110985
 Sum of electronic and zero-point Energies=           -234.403328
 Sum of electronic and thermal Energies=              -234.396906
 Sum of electronic and thermal Enthalpies=            -234.395962
 Sum of electronic and thermal Free Energies=         -234.432901
 
                     E (Thermal)             CV                S
                      KCal/Mol        Cal/Mol-Kelvin    Cal/Mol-Kelvin
 Total                   92.231             24.805             77.744
 Electronic               0.000              0.000              0.000
 Translational            0.889              2.981             39.129
 Rotational               0.889              2.981             26.654
 Vibrational             90.454             18.843             11.961
 Vibration     1          0.614              1.917              2.858
 Vibration     2          0.638              1.838              2.119
 Vibration     3          0.682              1.704              1.510
 Vibration     4          0.746              1.523              1.059
 Vibration     5          0.770              1.459              0.944
 Vibration     6          0.847              1.270              0.681
 Vibration     7          0.947              1.053              0.467
                       Q            Log10(Q)             Ln(Q)
 Total Bot       0.892233D-51        -51.049522       -117.545867
 Total V=0       0.400513D+14         13.602616         31.321182
 Vib (Bot)       0.204691D-63        -63.688902       -146.649115
 Vib (Bot)    1  0.149552D+01          0.174792          0.402473
 Vib (Bot)    2  0.989031D+00         -0.004790         -0.011029
 Vib (Bot)    3  0.675878D+00         -0.170132         -0.391743
 Vib (Bot)    4  0.483581D+00         -0.315531         -0.726536
 Vib (Bot)    5  0.438194D+00         -0.358334         -0.825094
 Vib (Bot)    6  0.337362D+00         -0.471904         -1.086600
 Vib (Bot)    7  0.255645D+00         -0.592362         -1.363964
 Vib (V=0)       0.918833D+01          0.963236          2.217934
 Vib (V=0)    1  0.207689D+01          0.317413          0.730870
 Vib (V=0)    2  0.160823D+01          0.206349          0.475137
 Vib (V=0)    3  0.134072D+01          0.127338          0.293207
 Vib (V=0)    4  0.119559D+01          0.077584          0.178643
 Vib (V=0)    5  0.116484D+01          0.066267          0.152585
 Vib (V=0)    6  0.110317D+01          0.042642          0.098187
 Vib (V=0)    7  0.106156D+01          0.025946          0.059744
 Electronic      0.100000D+01          0.000000          0.000000
 Translational   0.292278D+08          7.465796         17.190631
 Rotational      0.149137D+06          5.173584         11.912617
 
                                                 6b9c7303-d57c-4303-b8b0-ae38cc44
 0b17
                                                             IR Spectrum
 
 3333333333                                                          111 11 1    1111   11 11                                        
 2222111111                                                          665 54 4    3222   11 0099999 8 87  6  6 5  4   43  2   2 1     
 6443777665                                                          116 19 5    2865   11 1198751 5 18  9  2 9  9   07  8   0 3     
 3749740322                                                          738 43 4    7106   40 7244101 7 52  6  7 0  1   55  4   1 6     
 
 XXXXXXXXXX                                                          XXX XX X    XXX    XX XXXXXXX X XX  X  X    X   XX  X   X X     
 XXX XXXXXX                                                            X X                 XX X XX       X           X               
 XXX XXXX X                                                              X                 XX   XX       X                           
 XXX XXXX                                                                X                 XX   XX       X                           
 XXX XXXX                                                                X                  X   XX       X                           
 XXX  XXX                                                                                   X   XX       X                           
 XX   XXX                                                                                   X   XX       X                           
 XX   XXX                                                                                   X   XX       X                           
 XX    XX                                                                                   X   XX       X                           
 XX    XX                                                                                   X   XX       X                           
 XX    XX                                                                                   X   X        X                           
 XX    XX                                                                                   X   X        X                           
 X     XX                                                                                   X   X        X                           
 X     XX                                                                                   X            X                           
 X     XX                                                                                   X            X                           
 X     XX                                                                                   X            X                           
       XX                                                                                   X            X                           
       X                                                                                    X                                        
       X                                                                                    X                                        
                                                                                            X                                        
 
 ***** Axes restored to original set *****
 -------------------------------------------------------------------
 Center     Atomic                   Forces (Hartrees/Bohr)
 Number     Number              X              Y              Z
 -------------------------------------------------------------------
      1        6           0.000022283    0.000016131    0.000001487
      2        6          -0.000009327   -0.000016683   -0.000010493
      3        1          -0.000003462    0.000005250    0.000003584
      4        1           0.000001760    0.000001321   -0.000000107
      5        1          -0.000003772    0.000000655    0.000003211
      6        6          -0.000008819    0.000016612   -0.000008588
      7        6           0.000021723   -0.000017710    0.000000260
      8        1          -0.000003792   -0.000000846    0.000003311
      9        1           0.000001625   -0.000001316   -0.000000931
     10        1          -0.000003768   -0.000003611    0.000003259
     11        6          -0.000010071    0.000026767    0.000002892
     12        6          -0.000010242   -0.000025249    0.000003133
     13        1          -0.000000042   -0.000000036    0.000000083
     14        1           0.000002721    0.000001015   -0.000001266
     15        1           0.000002604   -0.000001104   -0.000001101
     16        1           0.000000579   -0.000001195    0.000001267
 -------------------------------------------------------------------
 Cartesian Forces:  Max     0.000026767 RMS     0.000009354
 Z-matrix is all fixed cartesians, so copy forces.
 Leave Link  716 at Sun May 25 10:34:36 2025, MaxMem=   104857600 cpu:               0.0 elap:               0.1
 (Enter /mlatom/software/Gaussian/g16-avx2/l103.exe)

 GradGradGradGradGradGradGradGradGradGradGradGradGradGradGradGradGradGrad
 Berny optimization.
 Search for a local minimum.
 Step number   1 out of a maximum of    2
 All quantities printed in internal units (Hartrees-Bohrs-Radians)
 Second derivative matrix not updated -- analytic derivatives used.
 ITU=  0
     Eigenvalues ---   -0.10986   0.00150   0.00609   0.00727   0.01148
     Eigenvalues ---    0.01415   0.02022   0.02026   0.02654   0.02855
     Eigenvalues ---    0.03125   0.03318   0.03442   0.04091   0.05353
     Eigenvalues ---    0.06011   0.06775   0.07410   0.08557   0.08695
     Eigenvalues ---    0.11556   0.12951   0.14074   0.14279   0.14637
     Eigenvalues ---    0.15563   0.16957   0.22500   0.25582   0.30448
     Eigenvalues ---    0.40079   0.52894   0.57661   0.72364   0.78137
     Eigenvalues ---    0.89065   0.91153   1.00388   1.05560   1.07283
     Eigenvalues ---    1.23323   1.25877
 Eigenvalue     1 is  -1.10D-01 should be greater than     0.000000 Eigenvector:
                          X12       X11       X7        X1        Z12
   1                    0.46889   0.46888  -0.41601  -0.41601  -0.14991
                          Z11       Z7        Z1        Y12       Y11
   1                   -0.14990   0.13950   0.13949   0.12192  -0.12189
 Angle between quadratic step and forces=  68.64 degrees.
 Linear search not attempted -- first point.
 B after Tr=     0.000005   -0.000000    0.000000
         Rot=    1.000000   -0.000000    0.000000   -0.000000 Ang=  -0.00 deg.
 Variable       Old X    -DE/DX   Delta X   Delta X   Delta X     New X
                                 (Linear)    (Quad)   (Total)
    X1       -0.84461   0.00002   0.00000   0.00020   0.00020  -0.84440
    Y1        2.71552   0.00002   0.00000   0.00016   0.00015   2.71567
    Z1        0.92557   0.00000   0.00000  -0.00017  -0.00017   0.92540
    X2       -2.49948  -0.00001   0.00000  -0.00006  -0.00006  -2.49954
    Y2        1.32957  -0.00002   0.00000  -0.00004  -0.00004   1.32953
    Z2       -0.54803  -0.00001   0.00000   0.00009   0.00009  -0.54794
    X3       -0.23885  -0.00000   0.00000   0.00006   0.00006  -0.23879
    Y3        2.01770   0.00001   0.00000   0.00048   0.00048   2.01818
    Z3        2.75374   0.00000   0.00000   0.00000   0.00000   2.75374
    X4       -0.74461   0.00000   0.00000  -0.00005  -0.00004  -0.74465
    Y4        4.75716   0.00000   0.00000   0.00017   0.00017   4.75733
    Z4        0.71714  -0.00000   0.00000  -0.00036  -0.00035   0.71679
    X5       -3.53417  -0.00000   0.00000  -0.00033  -0.00033  -3.53450
    Y5        2.29319   0.00000   0.00000  -0.00006  -0.00006   2.29313
    Z5       -2.04350   0.00000   0.00000   0.00026   0.00026  -2.04324
    X6       -2.49942  -0.00001   0.00000  -0.00008  -0.00007  -2.49949
    Y6       -1.32967   0.00002   0.00000   0.00004   0.00004  -1.32963
    Z6       -0.54802  -0.00001   0.00000   0.00008   0.00007  -0.54795
    X7       -0.84446   0.00002   0.00000   0.00017   0.00017  -0.84429
    Y7       -2.71553  -0.00002   0.00000  -0.00018  -0.00018  -2.71571
    Z7        0.92560   0.00000   0.00000  -0.00020  -0.00021   0.92540
    X8       -3.53405  -0.00000   0.00000  -0.00036  -0.00035  -3.53441
    Y8       -2.29337  -0.00000   0.00000   0.00009   0.00009  -2.29327
    Z8       -2.04347   0.00000   0.00000   0.00023   0.00023  -2.04325
    X9       -0.74438   0.00000   0.00000  -0.00008  -0.00007  -0.74446
    Y9       -4.75717  -0.00000   0.00000  -0.00019  -0.00019  -4.75736
    Z9        0.71721  -0.00000   0.00000  -0.00042  -0.00042   0.71678
   X10       -0.23874  -0.00000   0.00000   0.00003   0.00003  -0.23871
   Y10       -2.01769  -0.00000   0.00000  -0.00050  -0.00051  -2.01819
   Z10        2.75377   0.00000   0.00000  -0.00003  -0.00003   2.75374
   X11        2.97902  -0.00001   0.00000  -0.00010  -0.00009   2.97893
   Y11        1.30969   0.00003   0.00000   0.00009   0.00009   1.30978
   Z11       -0.42967   0.00000   0.00000   0.00008   0.00008  -0.42959
   X12        2.97904  -0.00001   0.00000  -0.00007  -0.00006   2.97898
   Y12       -1.30959  -0.00003   0.00000  -0.00007  -0.00007  -1.30966
   Z12       -0.42972   0.00000   0.00000   0.00013   0.00014  -0.42959
   X13        3.92216  -0.00000   0.00000  -0.00003  -0.00002   3.92214
   Y13        2.33522  -0.00000   0.00000   0.00004   0.00004   2.33527
   Z13        1.07787   0.00000   0.00000   0.00007   0.00008   1.07794
   X14        2.78491   0.00000   0.00000   0.00028   0.00028   2.78519
   Y14        2.33577   0.00000   0.00000  -0.00001  -0.00001   2.33577
   Z14       -2.19237  -0.00000   0.00000  -0.00002  -0.00002  -2.19239
   X15        2.78494   0.00000   0.00000   0.00034   0.00035   2.78529
   Y15       -2.33560  -0.00000   0.00000  -0.00006  -0.00005  -2.33565
   Z15       -2.19247  -0.00000   0.00000   0.00007   0.00007  -2.19239
   X16        3.92224   0.00000   0.00000  -0.00001  -0.00001   3.92224
   Y16       -2.33515  -0.00000   0.00000   0.00004   0.00004  -2.33511
   Z16        1.07775   0.00000   0.00000   0.00019   0.00019   1.07794
         Item               Value     Threshold  Converged?
 Maximum Force            0.000027     0.000450     YES
 RMS     Force            0.000009     0.000300     YES
 Maximum Displacement     0.000506     0.001800     YES
 RMS     Displacement     0.000191     0.001200     YES
 Predicted change in Energy=-2.703761D-08
 Optimization completed.
    -- Stationary point found.
 GradGradGradGradGradGradGradGradGradGradGradGradGradGradGradGradGradGrad

 Leave Link  103 at Sun May 25 10:34:36 2025, MaxMem=   104857600 cpu:               0.0 elap:               0.1
 (Enter /mlatom/software/Gaussian/g16-avx2/l9999.exe)
 1\1\GINC-B002\Freq\RExternal='/mlatom/software/miniconda3/bin/python /
 mlatom/software/mlatom_xacs/ml\ZDO\C6H10\UNKNOWN\25-May-2025\0\\#p Fre
 q external='/mlatom/software/miniconda3/bin/python /mlatom/software/ml
 atom_xacs/mlatom/interfaces/gaussian_interface.py model_predict_kwargs
 '\\6b9c7303-d57c-4303-b8b0-ae38cc440b17\\0,1\C,-0.4469462851,1.4369909
 139,0.4897911668\C,-1.3226688443,0.7035760455,-0.2900073081\H,-0.12639
 636,1.0677220723,1.4572149593\H,-0.3940301454,2.5173827827,0.379496273
 6\H,-1.8702019882,1.2135055885,-1.0813736421\C,-1.3226339182,-0.703632
 3318,-0.2899995331\C,-0.4468715762,-1.4369950256,0.4898072528\H,-1.870
 141188,-1.2135979972,-1.0813601507\H,-0.3939113497,-2.5173869736,0.379
 5302585\H,-0.1263372657,-1.0677142744,1.4572317989\C,1.5764295952,0.69
 30607322,-0.2273725904\C,1.5764419034,-0.6930070546,-0.2274004653\H,2.
 0755183568,1.2357474886,0.5703825606\H,1.4737086989,1.2360380846,-1.16
 01517261\H,1.473725388,-1.2359460623,-1.160202741\H,2.0755606047,-1.23
 57103873,0.5703212716\\Version=ES64L-G16RevA.03\HF=-234.5438856\RMSD=0
 .000e+00\RMSF=9.354e-06\ZeroPoint=0.140558\Thermal=0.1469796\Dipole=0.
 3947,0.,0.0065\DipoleDeriv=0.0866896,-0.0493619,0.0234348,0.0158286,0.
 089795,-0.0343856,0.0079125,0.0393953,0.0247917,-0.1912889,0.094547,0.
 141265,-0.0947425,-0.0029046,-0.0457823,0.10096,-0.2135863,0.0122139,0
 .0505515,0.0253643,-0.0464179,0.0235574,-0.0071246,0.0643686,-0.023235
 7,0.0137435,-0.0568489,0.0734379,0.0448447,-0.0165678,-0.0077812,-0.12
 31488,-0.0012048,-0.0025769,-0.0189518,0.0560337,0.0383165,0.0213867,-
 0.0791666,0.0472335,0.0059647,0.0535105,-0.1300533,0.0846633,-0.028920
 8,-0.1913067,-0.0945608,0.1412634,0.094726,-0.0029032,0.045787,0.10094
 69,0.2135974,0.012208,0.0866972,0.0493609,0.0234272,-0.0158128,0.08980
 03,0.034384,0.0079158,-0.039409,0.0247983,0.0383211,-0.0213849,-0.0791
 626,-0.0472322,0.0059598,-0.0535137,-0.1300469,-0.0846686,-0.0289184,0
 .0734413,-0.0448372,-0.0165662,0.0077901,-0.1231545,0.0012064,-0.00257
 91,0.0189559,0.0560322,0.0505493,-0.0253616,-0.0464134,-0.0235576,-0.0
 071264,-0.0643703,-0.0232338,-0.0137444,-0.056851,-0.132604,-0.0437394
 ,0.0526045,0.0866849,0.0370587,-0.0062235,0.1056105,-0.0452683,0.07064
 89,-0.1325895,0.0437385,0.0525963,-0.086699,0.037061,0.0062244,0.10558
 07,0.0452787,0.0706512,0.0364652,-0.0824631,-0.0612712,-0.0634332,0.00
 30563,-0.0292605,-0.0440108,-0.0309622,-0.026662,0.0384319,-0.0061481,
 -0.0138794,-0.036558,-0.0026991,0.0471542,-0.0145942,0.0571533,-0.0512
 584,0.0384249,0.0061454,-0.0138766,0.0365571,-0.0026953,-0.0471523,-0.
 0145889,-0.0571541,-0.0512643,0.0364627,0.0824696,-0.0612696,0.0634391
 ,0.0030604,0.0292579,-0.0440069,0.0309573,-0.0266541\PG=C01 [X(C6H10)]
 \NImag=1\\0.23130754,0.12416009,0.66366491,0.24814986,-0.02353089,0.55
 042375,-0.16739142,-0.11615766,-0.14202437,0.39060609,-0.05476338,-0.1
 8769096,-0.07738844,0.03047870,0.66641338,-0.12177284,-0.09121599,-0.1
 9614271,0.28454217,-0.02219846,0.47270140,-0.04595276,0.02462444,-0.08
 107625,-0.01028434,0.00069728,-0.02341869,0.06693903,0.02062583,-0.092
 52643,0.09164321,-0.00165826,0.01436201,-0.01321320,-0.02912047,0.0924
 8714,-0.09575604,0.09259327,-0.28049842,-0.00280643,0.01143408,-0.0096
 7769,0.09466216,-0.09967036,0.29140158,-0.03851582,-0.01040274,-0.0090
 6231,0.00294876,-0.02392458,0.00361321,0.00117589,0.00866081,-0.000812
 51,0.03609782,-0.01850191,-0.33655232,0.03390393,0.00216309,-0.0120186
 9,0.00390054,-0.00077411,-0.00722288,-0.00033348,0.01921923,0.35531910
 ,-0.01116133,0.03358325,-0.05468033,0.00073217,-0.01854432,0.00388495,
 0.00130547,0.02667941,0.00026296,0.01061540,-0.03511252,0.05029425,-0.
 00306093,0.01037558,-0.01618119,-0.11492653,0.05769760,-0.10933904,0.0
 0230273,-0.00318878,-0.00312769,-0.00261772,0.00061455,0.00267322,0.11
 393877,-0.00856843,0.01006002,-0.01541650,0.06015109,-0.11746267,0.095
 08883,-0.00338283,-0.00095987,-0.00176319,0.00081808,0.00096862,-0.000
 21299,-0.06629237,0.12478228,-0.01070637,0.00879056,-0.01221453,-0.111
 66458,0.09874770,-0.19188590,-0.00611717,-0.00076123,0.00121652,0.0033
 1057,-0.00092860,-0.00101471,0.12455266,-0.10155185,0.20041199,0.01688
 874,-0.01750355,0.00347816,-0.07695158,-0.01726790,-0.03216954,-0.0046
 2035,0.00161921,0.00187094,0.00052002,-0.00295565,-0.00454627,0.002622
 24,0.01803926,-0.00011589,0.39060777,-0.06773579,-0.03498692,-0.020760
 11,0.01727939,-0.31129669,0.03436857,0.00769260,-0.00330435,-0.0015589
 9,-0.00016940,0.00042275,-0.00196341,0.00183123,-0.01246609,-0.0043113
 5,-0.03048729,0.66640978,0.02067036,-0.01647611,0.01272794,-0.03216804
 ,-0.03436773,-0.10438368,0.00020456,0.00109150,0.00098755,-0.00727226,
 -0.00111336,0.00173334,0.00077833,0.02487783,0.00157295,0.28453938,0.0
 2221262,0.47269875,-0.05258370,-0.00582949,-0.00669173,0.01688469,0.06
 773907,0.02066917,0.00661850,-0.00245983,-0.00322620,-0.00057086,0.000
 13749,-0.00100093,0.00591245,-0.00166491,-0.00288482,-0.16739735,0.054
 76047,-0.12177566,0.23131736,0.00582722,-0.00392257,0.00530791,0.01750
 615,-0.03498223,0.01647753,-0.00090583,-0.00066883,0.00075638,0.001590
 69,0.00010521,-0.00023464,-0.00077514,-0.00551910,0.00038188,0.1161552
 6,-0.18767890,0.09120811,-0.12417452,0.66364893,-0.00669040,-0.0053081
 8,-0.00385574,0.00347678,0.02075947,0.01272698,0.00050950,-0.00284851,
 0.00031058,0.00053075,-0.00037300,-0.00134585,-0.00241749,-0.00172021,
 0.00274922,-0.14202831,0.07738046,-0.19614308,0.24815073,0.02353961,0.
 55042390,0.00591234,0.00077572,-0.00241750,0.00262323,-0.00183054,0.00
 077956,-0.00060272,-0.00010643,0.00031543,0.00024494,0.00003385,-0.000
 16527,-0.00208560,0.00001500,0.00219277,-0.11492040,-0.05769898,-0.109
 33403,-0.00306097,-0.01037629,-0.01618188,0.11393203,0.00166542,-0.005
 51896,0.00172023,-0.01803847,-0.01246733,-0.02487763,0.00016535,0.0001
 2643,-0.00016039,-0.00146408,-0.00073745,-0.00070669,-0.00001512,0.001
 11175,0.00031108,-0.06015241,-0.11747079,-0.09509550,0.00856767,0.0100
 5993,0.01541550,0.06629341,0.12479133,-0.00288482,-0.00038197,0.002749
 13,-0.00011589,0.00431158,0.00157324,0.00048047,0.00041502,-0.00015732
 ,-0.00021756,0.00009676,0.00014502,0.00219278,-0.00031100,-0.00035660,
 -0.11165949,-0.09875451,-0.19188401,-0.01070585,-0.00879130,-0.0122145
 1,0.12454708,0.10155925,0.20040986,-0.00057068,-0.00159072,0.00053076,
 0.00051977,0.00016920,-0.00727239,-0.00047861,0.00005419,0.00040327,0.
 00065445,-0.00010798,0.00000281,0.00024485,0.00146413,-0.00021756,0.00
 294763,0.02392571,0.00361301,-0.03851712,0.01041462,-0.00906083,-0.002
 61765,-0.00081823,0.00331053,0.03609986,-0.00013752,0.00010514,0.00037
 302,0.00295556,0.00042290,0.00111304,-0.00011379,0.00028157,0.00009785
 ,0.00010801,-0.00008050,0.00002847,-0.00003380,-0.00073738,-0.00009677
 ,-0.00216249,-0.01201748,-0.00390014,0.01851384,-0.33655082,-0.0338997
 3,-0.00061465,0.00096857,0.00092871,-0.01923193,0.35531751,-0.00100101
 ,0.00023455,-0.00134588,-0.00454636,0.00196332,0.00173338,0.00042855,0
 .00015603,0.00050187,0.00000282,-0.00002847,0.00031509,-0.00016531,0.0
 0070668,0.00014501,0.00073150,0.01854430,0.00388472,-0.01116009,-0.033
 57881,-0.05467940,0.00267322,0.00021311,-0.00101473,0.01061421,0.03510
 830,0.05029362,0.00661813,0.00090614,0.00050942,-0.00461981,-0.0076924
 9,0.00020477,0.00066252,0.00034594,-0.00005385,-0.00047860,0.00011376,
 0.00042857,-0.00060270,-0.00016537,0.00048048,-0.01028434,-0.00069903,
 -0.02341894,-0.04595151,-0.02462262,-0.08107257,0.00230240,0.00338295,
 -0.00611718,0.00117639,0.00077443,0.00130631,0.06693661,0.00245995,-0.
 00066858,0.00284849,-0.00161927,-0.00330460,-0.00109147,-0.00034578,-0
 .00177715,-0.00079763,-0.00005422,0.00028156,-0.00015600,0.00010642,0.
 00012642,-0.00041501,0.00165692,0.01436185,0.01321178,-0.02062384,-0.0
 9252794,-0.09164625,0.00318883,-0.00095953,0.00076096,-0.00866049,-0.0
 0722385,-0.02667980,0.02911970,0.09248979,-0.00322616,-0.00075658,0.00
 031047,0.00187079,0.00155908,0.00098752,-0.00005390,0.00079769,0.00043
 067,0.00040329,-0.00009783,0.00050186,0.00031543,0.00016041,-0.0001573
 2,-0.00280549,-0.01143405,-0.00967719,-0.09575202,-0.09259741,-0.28049
 811,-0.00312771,0.00176302,0.00121651,-0.00081255,0.00033328,0.0002630
 0,0.09465729,0.09967462,0.29140123,0.05711959,-0.01228643,-0.00051464,
 -0.03231773,-0.03926192,-0.01448175,-0.01314383,0.00462923,0.00705357,
 0.00091459,-0.00041483,0.00068819,-0.00160118,-0.00030740,0.00115980,-
 0.01388053,0.03171132,-0.01119124,0.02935678,-0.00515802,0.00183748,-0
 .00101138,0.00040550,0.00076137,-0.00106938,0.00011153,0.00115518,-0.0
 0368508,-0.00149094,0.00270402,0.15557848,-0.06922471,-0.00876577,0.00
 149100,0.02457819,0.04340265,0.02004061,0.00818774,-0.00249311,-0.0054
 4636,0.00540433,-0.00024092,-0.00407844,0.00204542,0.00028421,-0.00167
 480,0.01623027,-0.04522009,0.01805204,-0.06108203,-0.00374555,-0.00168
 469,0.00240960,-0.00025823,-0.00141955,0.00016768,-0.00024311,-0.00089
 599,0.00697968,0.00171876,-0.00445583,0.12010884,0.66767152,-0.0184621
 4,0.00411344,-0.01344575,0.00496587,0.01047952,0.00403828,0.01078915,-
 0.00300138,-0.00567407,-0.00132411,0.00059682,0.00030625,0.00044778,0.
 00012468,-0.00070009,0.00079660,-0.01149322,0.00622577,-0.01139655,0.0
 0282868,-0.00292123,0.00047188,-0.00004856,-0.00020884,0.00046639,0.00
 009502,-0.00046326,0.00219517,0.00117146,-0.00077215,0.16898487,-0.042
 59654,0.59486537,0.02935553,0.00515936,0.00183826,-0.01387860,-0.03171
 124,-0.01119059,-0.00368521,0.00149085,0.00270396,-0.00106931,-0.00011
 160,0.00115515,-0.00101126,-0.00040557,0.00076131,-0.03232045,0.039259
 60,-0.01448185,0.05711900,0.01228917,-0.00051644,-0.00160111,0.0003073
 2,0.00115977,0.00091449,0.00041491,0.00068822,-0.01314303,-0.00462957,
 0.00705341,-0.07291197,0.04351540,-0.01204357,0.15559044,0.06108184,-0
 .00374225,0.00168633,-0.01622813,-0.04522247,-0.01805196,-0.00698002,0
 .00171867,0.00445597,-0.00016758,-0.00024312,0.00089598,-0.00240962,-0
 .00025835,0.00141959,-0.02458246,0.04340302,-0.02004178,0.06922901,-0.
 00876291,-0.00149308,-0.00204555,0.00028412,0.00167488,-0.00540480,-0.
 00024114,0.00407868,-0.00818759,-0.00249345,0.00544647,-0.04350856,-0.
 37965249,0.01508742,-0.12012934,0.66766068,-0.01139565,-0.00282859,-0.
 00292156,0.00079583,0.01149324,0.00622549,0.00219515,-0.00117126,-0.00
 077215,0.00046614,-0.00009498,-0.00046312,0.00047186,0.00004859,-0.000
 20885,0.00496670,-0.01047910,0.00403834,-0.01846298,-0.00411510,-0.013
 44605,0.00044777,-0.00012471,-0.00070005,-0.00132408,-0.00059679,0.000
 30627,0.01078943,0.00300196,-0.00567426,-0.01204420,-0.01510145,-0.104
 91973,0.16898892,0.04260544,0.59486611,-0.01367024,-0.00118034,-0.0036
 2140,0.00156993,0.00398447,0.00267167,0.00012635,-0.00078917,-0.000475
 54,0.00006349,0.00035985,-0.00022024,0.00030503,0.00015539,-0.00019788
 ,0.00049379,-0.00492169,0.00195539,-0.00533478,0.00031622,-0.00038511,
 0.00030116,0.00004700,-0.00016024,0.00002267,-0.00004247,0.00000837,0.
 00038633,-0.00002521,-0.00021302,-0.08687346,-0.08073033,-0.11092861,0
 .00554102,0.00921633,-0.00028940,0.09552418,0.00259049,0.00101901,0.00
 023343,-0.00039218,-0.00085338,-0.00019742,-0.00004197,0.00015649,0.00
 037347,0.00001489,-0.00009651,0.00012421,-0.00006326,0.00003492,0.0000
 7981,0.00028141,0.00085364,-0.00025993,0.00094877,-0.00074026,-0.00028
 408,-0.00005382,-0.00003242,0.00005208,-0.00016564,0.00005360,0.000137
 83,-0.00015928,-0.00002952,0.00009055,-0.06994142,-0.12101226,-0.09803
 299,-0.01396906,-0.01410483,-0.02596559,0.07269940,0.12936980,0.007185
 86,0.00110543,0.00071855,-0.00064505,-0.00248971,-0.00099582,0.0006908
 3,-0.00006846,0.00110144,-0.00046476,0.00005593,0.00006121,-0.00017928
 ,-0.00002583,0.00031562,-0.00065267,0.00274114,-0.00108967,0.00337299,
 0.00038978,0.00019230,-0.00013137,0.00004900,0.00009407,0.00004735,0.0
 0005818,-0.00004187,-0.00033474,-0.00008801,0.00013107,-0.10808260,-0.
 09723786,-0.21017526,-0.00077429,-0.00211647,0.00360584,0.11110607,0.1
 1174102,0.21894887,-0.01434063,-0.00133099,0.00793712,0.00275424,0.005
 82317,0.00390017,-0.00023630,0.00003677,-0.00008202,0.00075440,0.00008
 324,-0.00045177,0.00010567,0.00010859,-0.00027361,0.00196999,-0.004940
 77,0.00130889,-0.00578113,-0.00059733,-0.00046886,0.00017302,-0.000082
 33,-0.00011948,-0.00014466,-0.00009856,-0.00006352,0.00079273,0.000165
 13,-0.00045598,-0.02772814,-0.00199604,-0.03411990,0.00571213,0.007378
 29,-0.00055329,-0.00022116,0.00850820,-0.01150359,0.03481965,0.0024186
 2,0.00090864,-0.00235157,-0.00087855,-0.00080047,-0.00061430,0.0002096
 5,-0.00013370,0.00009517,0.00003028,0.00000836,-0.00001096,-0.00003990
 ,0.00009055,0.00006161,-0.00014172,0.00064444,-0.00021123,0.00094855,-
 0.00064260,0.00004406,-0.00009332,-0.00002289,0.00000053,-0.00017065,0
 .00003317,0.00015354,0.00007154,-0.00001648,-0.00001476,0.00681401,-0.
 12332230,0.12327841,0.00538119,-0.01401780,0.02856642,-0.00000280,0.00
 886693,-0.01408966,-0.01347380,0.13182560,0.00276519,0.00002131,-0.002
 30522,-0.00150687,-0.00147147,0.00068575,-0.00001491,-0.00022570,0.000
 29699,0.00017259,-0.00041960,-0.00004955,0.00015794,0.00001578,0.00000
 937,-0.00025345,0.00154647,-0.00038150,0.00091230,-0.00044627,0.000287
 94,-0.00004862,-0.00002779,0.00002322,-0.00000868,-0.00000603,0.000090
 52,-0.00025016,-0.00008926,0.00013837,-0.03646728,0.12917958,-0.273955
 86,-0.00078857,-0.00371279,0.00419481,-0.00042378,0.01092851,-0.015113
 96,0.03538048,-0.13462250,0.28323591,-0.00578032,0.00059700,-0.0004690
 0,0.00196958,0.00494033,0.00130852,0.00079270,-0.00016513,-0.00045589,
 -0.00014466,0.00009854,-0.00006352,0.00017296,0.00008235,-0.00011944,0
 .00275440,-0.00582253,0.00390012,-0.01433953,0.00133042,0.00793769,0.0
 0010564,-0.00010859,-0.00027360,0.00075442,-0.00008320,-0.00045178,-0.
 00023658,-0.00003685,-0.00008186,0.00571182,-0.00737715,-0.00055267,-0
 .02773013,0.00199792,-0.03411920,0.00584426,-0.00120235,-0.00204830,-0
 .00447387,0.00078611,0.00161362,0.03482037,-0.00094854,-0.00064257,-0.
 00004411,0.00014174,0.00064455,0.00021123,-0.00007153,-0.00001650,0.00
 001476,0.00017062,0.00003317,-0.00015353,0.00009333,-0.00002288,-0.000
 00053,0.00087875,-0.00080053,0.00061435,-0.00241885,0.00090860,0.00235
 210,0.00003990,0.00009055,-0.00006164,-0.00003020,0.00000833,0.0000109
 5,-0.00020978,-0.00013374,-0.00009515,-0.00538100,-0.01401703,-0.02856
 736,-0.00681171,-0.12331145,-0.12327226,0.00185946,-0.00518716,-0.0001
 3027,-0.00078630,0.00176569,0.00041484,0.01347140,0.13181441,0.0009121
 7,0.00044623,0.00028796,-0.00025340,-0.00154644,-0.00038144,-0.0002501
 6,0.00008925,0.00013834,-0.00000865,0.00000603,0.00009050,-0.00004860,
 0.00002778,0.00002322,-0.00150691,0.00147135,0.00068581,0.00276499,-0.
 00002119,-0.00230544,0.00015797,-0.00001576,0.00000937,0.00017255,0.00
 041958,-0.00004959,-0.00001481,0.00022574,0.00029697,-0.00078872,0.003
 71193,0.00419373,-0.03646665,-0.12917342,-0.27396563,-0.00123991,0.001
 08479,0.00188578,0.00161369,-0.00041478,0.00095753,0.03537994,0.134616
 29,0.28324650,-0.00533535,-0.00031642,-0.00038520,0.00049373,0.0049222
 3,0.00195561,0.00038641,0.00002522,-0.00021314,0.00002263,0.00004248,0
 .00000837,0.00030121,-0.00004700,-0.00016028,0.00157043,-0.00398484,0.
 00267198,-0.01367183,0.00118000,-0.00362103,0.00030507,-0.00015539,-0.
 00019789,0.00006357,-0.00035987,-0.00022031,0.00012654,0.00078922,-0.0
 0047553,0.00554143,-0.00921690,-0.00029014,-0.08688154,0.08074026,-0.1
 1093301,-0.00407856,0.00094582,0.00241354,0.00584405,-0.00185921,-0.00
 123981,-0.00022106,0.00000272,-0.00042350,0.09553327,-0.00094917,-0.00
 074041,0.00028407,-0.00028140,0.00085400,0.00026006,0.00015928,-0.0000
 2951,-0.00009056,0.00016567,0.00005361,-0.00013784,0.00005386,-0.00003
 242,-0.00005210,0.00039238,-0.00085364,0.00019755,-0.00259139,0.001019
 03,-0.00023347,0.00006328,0.00003491,-0.00007982,-0.00001490,-0.000096
 50,-0.00012421,0.00004203,0.00015648,-0.00037350,0.01397009,-0.0141062
 7,0.02596460,0.06995026,-0.12101623,0.09803418,-0.00094612,0.00170195,
 0.00010580,0.00120274,-0.00518712,-0.00108508,-0.00850828,0.00886655,-
 0.01092739,-0.07270832,0.12937555,0.00337333,-0.00038975,0.00019235,-0
 .00065264,-0.00274142,-0.00108975,-0.00033477,0.00008798,0.00013113,0.
 00004740,-0.00005818,-0.00004188,-0.00013139,-0.00004900,0.00009409,-0
 .00064525,0.00248985,-0.00099603,0.00718666,-0.00110516,0.00071849,-0.
 00017931,0.00002584,0.00031562,-0.00046480,-0.00005600,0.00006123,0.00
 069081,0.00006841,0.00110136,-0.00077406,0.00211634,0.00360684,-0.1080
 8703,0.09723875,-0.21016548,0.00241363,-0.00010569,0.00036184,-0.00204
 832,0.00013001,0.00188569,-0.01150462,0.01409033,-0.01511362,0.1111103
 7,-0.11174231,0.21893811\\-0.00002228,-0.00001613,-0.00000149,0.000009
 33,0.00001668,0.00001049,0.00000346,-0.00000525,-0.00000358,-0.0000017
 6,-0.00000132,0.00000011,0.00000377,-0.00000066,-0.00000321,0.00000882
 ,-0.00001661,0.00000859,-0.00002172,0.00001771,-0.00000026,0.00000379,
 0.00000085,-0.00000331,-0.00000162,0.00000132,0.00000093,0.00000377,0.
 00000361,-0.00000326,0.00001007,-0.00002677,-0.00000289,0.00001024,0.0
 0002525,-0.00000313,0.00000004,0.00000004,-0.00000008,-0.00000272,-0.0
 0000101,0.00000127,-0.00000260,0.00000110,0.00000110,-0.00000058,0.000
 00120,-0.00000127\\\@


 IT IS NOT EASY TO DESCRIBE
     THE SEA WITH THE MOUTH

                   -- KOKYU
 Job cpu time:       0 days  0 hours  0 minutes  0.6 seconds.
 Elapsed time:       0 days  0 hours  0 minutes 21.6 seconds.
 File lengths (MBytes):  RWF=     22 Int=      0 D2E=      0 Chk=      2 Scr=      2
 Normal termination of Gaussian 16 at Sun May 25 10:34:37 2025.
