 Entering Gaussian System, Link 0=/mlatom/software/Gaussian/g16-avx2/g16
 Input=gaussian.com
 Output=gaussian.log
 Initial command:
 /mlatom/software/Gaussian/g16-avx2/l1.exe "/mlatom/home/huangyh/projects/delta_learning/paper/revision1/Starting_from_ub3lyp_d4/da/b3lyp/xtb/ts/Gau-146642.inp" -scrdir="/mlatom/home/huangyh/projects/delta_learning/paper/revision1/Starting_from_ub3lyp_d4/da/b3lyp/xtb/ts/"
 Entering Link 1 = /mlatom/software/Gaussian/g16-avx2/l1.exe PID=    146643.
  
 Copyright (c) 1988,1990,1992,1993,1995,1998,2003,2009,2016,
            Gaussian, Inc.  All Rights Reserved.
  
 This is part of the Gaussian(R) 16 program.  It is based on
 the Gaussian(R) 09 system (copyright 2009, Gaussian, Inc.),
 the Gaussian(R) 03 system (copyright 2003, Gaussian, Inc.),
 the Gaussian(R) 98 system (copyright 1998, Gaussian, Inc.),
 the Gaussian(R) 94 system (copyright 1995, Gaussian, Inc.),
 the Gaussian 92(TM) system (copyright 1992, Gaussian, Inc.),
 the Gaussian 90(TM) system (copyright 1990, Gaussian, Inc.),
 the Gaussian 88(TM) system (copyright 1988, Gaussian, Inc.),
 the Gaussian 86(TM) system (copyright 1986, Carnegie Mellon
 University), and the Gaussian 82(TM) system (copyright 1983,
 Carnegie Mellon University). Gaussian is a federally registered
 trademark of Gaussian, Inc.
  
 This software contains proprietary and confidential information,
 including trade secrets, belonging to Gaussian, Inc.
  
 This software is provided under written license and may be
 used, copied, transmitted, or stored only in accord with that
 written license.
  
 The following legend is applicable only to US Government
 contracts under FAR:
  
                    RESTRICTED RIGHTS LEGEND
  
 Use, reproduction and disclosure by the US Government is
 subject to restrictions as set forth in subparagraphs (a)
 and (c) of the Commercial Computer Software - Restricted
 Rights clause in FAR 52.227-19.
  
 Gaussian, Inc.
 340 Quinnipiac St., Bldg. 40, Wallingford CT 06492
  
  
 ---------------------------------------------------------------
 Warning -- This program may not be used in any manner that
 competes with the business of Gaussian, Inc. or will provide
 assistance to any competitor of Gaussian, Inc.  The licensee
 of this program is prohibited from giving any competitor of
 Gaussian, Inc. access to this program.  By using this program,
 the user acknowledges that Gaussian, Inc. is engaged in the
 business of creating and licensing software in the field of
 computational chemistry and represents and warrants to the
 licensee that it is not a competitor of Gaussian, Inc. and that
 it will not use this program in any manner prohibited above.
 ---------------------------------------------------------------
  

 Cite this work as:
 Gaussian 16, Revision A.03,
 M. J. Frisch, G. W. Trucks, H. B. Schlegel, G. E. Scuseria, 
 M. A. Robb, J. R. Cheeseman, G. Scalmani, V. Barone, 
 G. A. Petersson, H. Nakatsuji, X. Li, M. Caricato, A. V. Marenich, 
 J. Bloino, B. G. Janesko, R. Gomperts, B. Mennucci, H. P. Hratchian, 
 J. V. Ortiz, A. F. Izmaylov, J. L. Sonnenberg, D. Williams-Young, 
 F. Ding, F. Lipparini, F. Egidi, J. Goings, B. Peng, A. Petrone, 
 T. Henderson, D. Ranasinghe, V. G. Zakrzewski, J. Gao, N. Rega, 
 G. Zheng, W. Liang, M. Hada, M. Ehara, K. Toyota, R. Fukuda, 
 J. Hasegawa, M. Ishida, T. Nakajima, Y. Honda, O. Kitao, H. Nakai, 
 T. Vreven, K. Throssell, J. A. Montgomery, Jr., J. E. Peralta, 
 F. Ogliaro, M. J. Bearpark, J. J. Heyd, E. N. Brothers, K. N. Kudin, 
 V. N. Staroverov, T. A. Keith, R. Kobayashi, J. Normand, 
 K. Raghavachari, A. P. Rendell, J. C. Burant, S. S. Iyengar, 
 J. Tomasi, M. Cossi, J. M. Millam, M. Klene, C. Adamo, R. Cammi, 
 J. W. Ochterski, R. L. Martin, K. Morokuma, O. Farkas, 
 J. B. Foresman, and D. J. Fox, Gaussian, Inc., Wallingford CT, 2016.
 
 ******************************************
 Gaussian 16:  ES64L-G16RevA.03 25-Dec-2016
                27-May-2025 
 ******************************************
 %nproc=1
 Will use up to    1 processors via shared memory.
 ----------------------------------------------------------------------
 #p Freq external='/mlatom/software/miniconda3/bin/python /mlatom/softw
 are/mlatom_xacs/mlatom/interfaces/gaussian_interface.py model_predict_
 kwargs'
 ----------------------------------------------------------------------
 1/10=4,18=10,30=1,38=1/1,3;
 2/12=2,17=6,18=5,40=1/2;
 3/11=9,25=1,30=1,41=9900000,43=2,71=2,140=1/1;
 4/20=17,22=2,24=3,113=1,114=1/2;
 6/7=2,8=2,9=2,10=2/1;
 7/8=1,25=1,44=-1/16;
 1/10=4,18=10,30=1/3;
 99//99;
 Leave Link    1 at Tue May 27 14:34:41 2025, MaxMem=           0 cpu:               0.0 elap:               0.3
 (Enter /mlatom/software/Gaussian/g16-avx2/l101.exe)
 ------------------------------------
 f16c7a25-20e7-44a4-b5b9-01b9e5211719
 ------------------------------------
 Symbolic Z-matrix:
 Charge =  0 Multiplicity = 1
 C                     0.48839  -1.43408   0.51348 
 C                     1.27052  -0.70464  -0.31705 
 H                     0.15977  -1.04733   1.46026 
 H                     0.42221  -2.5042    0.40157 
 H                     1.7634   -1.196    -1.14563 
 C                     1.26639   0.71126  -0.31677 
 C                     0.47958   1.43574   0.51377 
 H                     1.75643   1.20584  -1.14511 
 H                     0.40767   2.50557   0.40255 
 H                     0.15374   1.04677   1.46061 
 C                    -1.57293  -0.67905  -0.22606 
 C                    -1.57572   0.67168  -0.22598 
 H                    -1.99534  -1.23503   0.59297 
 H                    -1.39886  -1.22888  -1.13425 
 H                    -1.40524   1.22233  -1.13436 
 H                    -2.00124   1.22543   0.59299 
 
 ITRead=  0  0  0  0  0  0  0  0  0  0  0  0  0  0  0  0
 MicOpt= -1 -1 -1 -1 -1 -1 -1 -1 -1 -1 -1 -1 -1 -1 -1 -1
 NAtoms=     16 NQM=       16 NQMF=       0 NMMI=      0 NMMIF=      0
                NMic=       0 NMicF=      0.
                    Isotopes and Nuclear Properties:
 (Nuclear quadrupole moments (NQMom) in fm**2, nuclear magnetic moments (NMagM)
  in nuclear magnetons)

  Atom         1           2           3           4           5           6           7           8           9          10
 IAtWgt=          12          12           1           1           1          12          12           1           1           1
 AtmWgt=  12.0000000  12.0000000   1.0078250   1.0078250   1.0078250  12.0000000  12.0000000   1.0078250   1.0078250   1.0078250
 NucSpn=           0           0           1           1           1           0           0           1           1           1
 AtZEff=  -0.0000000  -0.0000000  -0.0000000  -0.0000000  -0.0000000  -0.0000000  -0.0000000  -0.0000000  -0.0000000  -0.0000000
 NQMom=    0.0000000   0.0000000   0.0000000   0.0000000   0.0000000   0.0000000   0.0000000   0.0000000   0.0000000   0.0000000
 NMagM=    0.0000000   0.0000000   2.7928460   2.7928460   2.7928460   0.0000000   0.0000000   2.7928460   2.7928460   2.7928460
 AtZNuc=   6.0000000   6.0000000   1.0000000   1.0000000   1.0000000   6.0000000   6.0000000   1.0000000   1.0000000   1.0000000

  Atom        11          12          13          14          15          16
 IAtWgt=          12          12           1           1           1           1
 AtmWgt=  12.0000000  12.0000000   1.0078250   1.0078250   1.0078250   1.0078250
 NucSpn=           0           0           1           1           1           1
 AtZEff=  -0.0000000  -0.0000000  -0.0000000  -0.0000000  -0.0000000  -0.0000000
 NQMom=    0.0000000   0.0000000   0.0000000   0.0000000   0.0000000   0.0000000
 NMagM=    0.0000000   0.0000000   2.7928460   2.7928460   2.7928460   2.7928460
 AtZNuc=   6.0000000   6.0000000   1.0000000   1.0000000   1.0000000   1.0000000
 Leave Link  101 at Tue May 27 14:34:42 2025, MaxMem=   104857600 cpu:               0.1 elap:               0.2
 (Enter /mlatom/software/Gaussian/g16-avx2/l103.exe)

 GradGradGradGradGradGradGradGradGradGradGradGradGradGradGradGradGradGrad
 Berny optimization.
 Initialization pass.
 Trust Radius=3.00D-01 FncErr=1.00D-07 GrdErr=1.00D-07 EigMax=2.50D+02 EigMin=1.00D-04
 Number of steps in this run=      2 maximum allowed number of steps=      2.
 GradGradGradGradGradGradGradGradGradGradGradGradGradGradGradGradGradGrad

 Leave Link  103 at Tue May 27 14:34:42 2025, MaxMem=   104857600 cpu:               0.0 elap:               0.1
 (Enter /mlatom/software/Gaussian/g16-avx2/l202.exe)
                          Input orientation:                          
 ---------------------------------------------------------------------
 Center     Atomic      Atomic             Coordinates (Angstroms)
 Number     Number       Type             X           Y           Z
 ---------------------------------------------------------------------
      1          6           0        0.488389   -1.434079    0.513485
      2          6           0        1.270525   -0.704637   -0.317048
      3          1           0        0.159773   -1.047327    1.460256
      4          1           0        0.422214   -2.504197    0.401575
      5          1           0        1.763400   -1.196000   -1.145633
      6          6           0        1.266390    0.711257   -0.316767
      7          6           0        0.479579    1.435739    0.513773
      8          1           0        1.756434    1.205836   -1.145114
      9          1           0        0.407669    2.505565    0.402548
     10          1           0        0.153743    1.046766    1.460607
     11          6           0       -1.572927   -0.679048   -0.226057
     12          6           0       -1.575715    0.671684   -0.225983
     13          1           0       -1.995338   -1.235025    0.592968
     14          1           0       -1.398862   -1.228881   -1.134247
     15          1           0       -1.405236    1.222334   -1.134361
     16          1           0       -2.001242    1.225431    0.592986
 ---------------------------------------------------------------------
                    Distance matrix (angstroms):
                    1          2          3          4          5
     1  C    0.000000
     2  C    1.354107   0.000000
     3  H    1.074217   2.123679   0.000000
     4  H    1.077987   2.115293   1.819931   0.000000
     5  H    2.105945   1.082089   3.063394   2.429817   0.000000
     6  C    2.428388   1.415900   2.734050   3.401145   2.138146
     7  C    2.869831   2.428388   2.676514   3.941951   3.365691
     8  H    3.365715   2.138156   3.796581   4.235179   2.401847
     9  H    3.942032   3.401138   3.715272   5.009783   4.235146
    10  H    2.676494   2.733984   2.094102   3.715234   3.796509
    11  C    2.316466   2.845022   2.445717   2.775910   3.499134
    12  C    3.039996   3.162852   2.968219   3.804178   3.934932
    13  H    2.492958   3.431516   2.330648   2.737149   4.141542
    14  H    2.513731   2.840471   3.032120   2.702128   3.162454
    15  H    3.654824   3.397193   3.785849   4.425574   3.986067
    16  H    3.643841   3.906122   3.253856   4.451955   4.801944
                    6          7          8          9         10
     6  C    0.000000
     7  C    1.354157   0.000000
     8  H    1.082087   2.105972   0.000000
     9  H    2.115268   1.077993   2.429757   0.000000
    10  H    2.123583   1.074227   3.063283   1.819907   0.000000
    11  C    3.162735   3.038495   3.934730   3.802586   2.967264
    12  C    2.843830   2.314142   3.497619   2.773442   2.444647
    13  H    3.905701   3.642042   4.801513   4.450024   3.252371
    14  H    3.396465   3.653041   3.985456   4.423955   3.784497
    15  H    2.840290   2.512850   3.161732   2.700999   3.032342
    16  H    3.430663   2.490980   4.140231   2.734568   2.329946
                   11         12         13         14         15
    11  C    0.000000
    12  C    1.350735   0.000000
    13  H    1.076264   2.117145   0.000000
    14  H    1.075836   2.113851   1.827319   0.000000
    15  H    2.113857   1.075838   3.061127   2.451223   0.000000
    16  H    2.116915   1.076299   2.460463   3.061020   1.827282
                   16
    16  H    0.000000
 Stoichiometry    C6H10
 Framework group  C1[X(C6H10)]
 Deg. of freedom    42
 Full point group                 C1      NOp   1
 Largest Abelian subgroup         C1      NOp   1
 Largest concise Abelian subgroup C1      NOp   1
                         Standard orientation:                         
 ---------------------------------------------------------------------
 Center     Atomic      Atomic             Coordinates (Angstroms)
 Number     Number       Type             X           Y           Z
 ---------------------------------------------------------------------
      1          6           0        0.488389   -1.434079    0.513485
      2          6           0        1.270525   -0.704637   -0.317048
      3          1           0        0.159773   -1.047327    1.460256
      4          1           0        0.422214   -2.504197    0.401575
      5          1           0        1.763400   -1.196000   -1.145633
      6          6           0        1.266390    0.711257   -0.316767
      7          6           0        0.479579    1.435739    0.513773
      8          1           0        1.756434    1.205836   -1.145114
      9          1           0        0.407669    2.505565    0.402548
     10          1           0        0.153743    1.046766    1.460607
     11          6           0       -1.572927   -0.679048   -0.226057
     12          6           0       -1.575715    0.671684   -0.225983
     13          1           0       -1.995338   -1.235025    0.592968
     14          1           0       -1.398862   -1.228881   -1.134247
     15          1           0       -1.405236    1.222334   -1.134361
     16          1           0       -2.001242    1.225431    0.592986
 ---------------------------------------------------------------------
 Rotational constants (GHZ):           4.3300726           3.5376900           2.3117975
 Leave Link  202 at Tue May 27 14:34:42 2025, MaxMem=   104857600 cpu:               0.0 elap:               0.1
 (Enter /mlatom/software/Gaussian/g16-avx2/l301.exe)
 Standard basis: STO-3G (5D, 7F)
 Ernie: Thresh=  0.10000D-02 Tol=  0.10000D-05 Strict=F.
 There are    40 symmetry adapted cartesian basis functions of A   symmetry.
 There are    40 symmetry adapted basis functions of A   symmetry.
    40 basis functions,   120 primitive gaussians,    40 cartesian basis functions
    23 alpha electrons       23 beta electrons
       nuclear repulsion energy       226.0826101323 Hartrees.
 IExCor=    0 DFT=F Ex=HF Corr=None ExCW=0 ScaHFX=  1.000000
 ScaDFX=  1.000000  1.000000  1.000000  1.000000 ScalE2=  1.000000  1.000000
 IRadAn=      5 IRanWt=     -1 IRanGd=            0 ICorTp=0 IEmpDi=  4
 NAtoms=   16 NActive=   16 NUniq=   16 SFac= 1.00D+00 NAtFMM=   60 NAOKFM=F Big=F
 Integral buffers will be    131072 words long.
 Raffenetti 1 integral format.
 Two-electron integral symmetry is turned on.
 Leave Link  301 at Tue May 27 14:34:42 2025, MaxMem=   104857600 cpu:               0.0 elap:               0.1
 (Enter /mlatom/software/Gaussian/g16-avx2/l402.exe)
 External calculation of energy, first and second derivatives.
 Running external command "/mlatom/software/miniconda3/bin/python /mlatom/software/mlatom_xacs/mlatom/interfaces/gaussian_interface.py model_predict_kwargs R"
         input file       "/mlatom/home/huangyh/projects/delta_learning/paper/revision1/Starting_from_ub3lyp_d4/da/b3lyp/xtb/ts/Gau-146643.EIn"
         output file      "/mlatom/home/huangyh/projects/delta_learning/paper/revision1/Starting_from_ub3lyp_d4/da/b3lyp/xtb/ts/Gau-146643.EOu"
         message file     "/mlatom/home/huangyh/projects/delta_learning/paper/revision1/Starting_from_ub3lyp_d4/da/b3lyp/xtb/ts/Gau-146643.EMs"
         fchk file        "/mlatom/home/huangyh/projects/delta_learning/paper/revision1/Starting_from_ub3lyp_d4/da/b3lyp/xtb/ts/Gau-146643.EFC"
         mat. el file     "/mlatom/home/huangyh/projects/delta_learning/paper/revision1/Starting_from_ub3lyp_d4/da/b3lyp/xtb/ts/Gau-146643.EUF"
 Recovered energy= -17.8122592830     dipole=     -0.185535358464      0.000000000000      0.193160099223
 Energy=    -17.8122593     NIter=   0.
 Dipole moment=      -0.185535       0.000000       0.193160
 Leave Link  402 at Tue May 27 14:34:44 2025, MaxMem=   104857600 cpu:               0.0 elap:               2.1
 (Enter /mlatom/software/Gaussian/g16-avx2/l601.exe)
 Leave Link  601 at Tue May 27 14:34:44 2025, MaxMem=   104857600 cpu:               0.0 elap:               0.1
 (Enter /mlatom/software/Gaussian/g16-avx2/l716.exe)
 Dipole        =-1.85535358D-01 0.00000000D+00 1.93160099D-01
 Full mass-weighted force constant matrix:
 Low frequencies --- -393.8166   -0.0263   -0.0234   -0.0113   -0.0071    0.0176
 Low frequencies ---    0.0249  116.9562  172.9451
 ******    1 imaginary frequencies (negative Signs) ****** 
 Diagonal vibrational polarizability:
        0.0000000       0.0000000       0.0000000
 Harmonic frequencies (cm**-1), IR intensities (KM/Mole), Raman scattering
 activities (A**4/AMU), depolarization ratios for plane and unpolarized
 incident light, reduced masses (AMU), force constants (mDyne/A),
 and normal coordinates:
                      1                      2                      3
                      A                      A                      A
 Frequencies --   -393.8166               116.9562               172.9451
 Red. masses --      8.2487                 2.1475                 4.0692
 Frc consts  --      0.7537                 0.0173                 0.0717
 IR Inten    --      0.0000                 0.0000                 0.0000
  Atom  AN      X      Y      Z        X      Y      Z        X      Y      Z
     1   6    -0.36   0.13  -0.12     0.08  -0.06  -0.06     0.23  -0.13   0.10
     2   6    -0.00   0.05  -0.01     0.02   0.02  -0.04     0.10  -0.06   0.05
     3   1     0.06   0.03   0.07     0.09  -0.12  -0.03     0.02  -0.09   0.01
     4   1    -0.35   0.13  -0.13     0.10  -0.05  -0.13     0.32  -0.13   0.13
     5   1     0.05  -0.03   0.07     0.02   0.08  -0.08     0.22  -0.05   0.12
     6   6    -0.00  -0.05  -0.01    -0.02   0.02   0.04    -0.10  -0.06  -0.05
     7   6    -0.36  -0.13  -0.12    -0.08  -0.06   0.06    -0.23  -0.13  -0.10
     8   1     0.05   0.03   0.07    -0.02   0.08   0.08    -0.21  -0.06  -0.12
     9   1    -0.35  -0.13  -0.13    -0.10  -0.05   0.13    -0.32  -0.14  -0.13
    10   1     0.06  -0.03   0.07    -0.09  -0.12   0.03    -0.02  -0.09  -0.01
    11   6     0.38  -0.07   0.13    -0.08   0.04   0.17    -0.03   0.18  -0.10
    12   6     0.38   0.07   0.13     0.08   0.04  -0.17     0.03   0.18   0.10
    13   1     0.02   0.02   0.01    -0.07   0.30   0.35     0.05   0.05  -0.16
    14   1     0.00   0.02   0.01    -0.16  -0.22   0.31     0.11   0.29  -0.14
    15   1     0.00  -0.02   0.01     0.16  -0.22  -0.31    -0.11   0.29   0.14
    16   1     0.02  -0.02   0.01     0.07   0.30  -0.35    -0.05   0.05   0.16
                      4                      5                      6
                      A                      A                      A
 Frequencies --    253.8201               356.8953               367.5599
 Red. masses --      3.1171                 2.5025                 2.7468
 Frc consts  --      0.1183                 0.1878                 0.2186
 IR Inten    --      0.0000                 0.0000                 0.0000
  Atom  AN      X      Y      Z        X      Y      Z        X      Y      Z
     1   6    -0.05  -0.01  -0.16     0.03  -0.03   0.03     0.00  -0.24  -0.06
     2   6     0.19   0.00   0.08    -0.07  -0.04  -0.07    -0.08  -0.00   0.07
     3   1    -0.18  -0.07  -0.18     0.31  -0.06   0.14    -0.03  -0.47   0.02
     4   1    -0.06  -0.00  -0.24    -0.12  -0.01  -0.03     0.07  -0.22  -0.34
     5   1     0.41   0.01   0.20    -0.27  -0.01  -0.21    -0.08   0.12  -0.01
     6   6     0.19   0.00   0.08     0.07  -0.04   0.08    -0.08   0.00   0.07
     7   6    -0.05   0.01  -0.16    -0.03  -0.03  -0.03     0.00   0.24  -0.06
     8   1     0.41  -0.01   0.20     0.27  -0.01   0.21    -0.08  -0.13  -0.02
     9   1    -0.06   0.00  -0.24     0.12  -0.01   0.03     0.07   0.22  -0.34
    10   1    -0.18   0.06  -0.18    -0.31  -0.05  -0.14    -0.03   0.47   0.03
    11   6    -0.13  -0.00   0.08     0.21   0.07   0.06     0.07   0.00   0.02
    12   6    -0.13   0.00   0.08    -0.21   0.06  -0.06     0.07  -0.00   0.02
    13   1    -0.09   0.00   0.11     0.29   0.03   0.07     0.07   0.01   0.02
    14   1    -0.20  -0.00   0.07     0.29   0.07   0.07     0.04   0.01   0.01
    15   1    -0.20   0.00   0.07    -0.29   0.07  -0.07     0.05  -0.01   0.01
    16   1    -0.09  -0.00   0.11    -0.29   0.03  -0.07     0.07  -0.01   0.02
                      7                      8                      9
                      A                      A                      A
 Frequencies --    422.5783               557.9766               585.9716
 Red. masses --      2.8919                 2.0806                 1.0636
 Frc consts  --      0.3043                 0.3817                 0.2152
 IR Inten    --      0.0000                 0.0000                 0.0000
  Atom  AN      X      Y      Z        X      Y      Z        X      Y      Z
     1   6     0.09   0.01   0.10     0.03   0.07  -0.05     0.01  -0.01  -0.01
     2   6    -0.16   0.03  -0.11     0.09  -0.11  -0.13    -0.01   0.00  -0.02
     3   1     0.28   0.03   0.15     0.11   0.49  -0.20    -0.09   0.01  -0.05
     4   1    -0.04   0.03   0.06    -0.14   0.05   0.31     0.06  -0.02   0.03
     5   1    -0.42   0.05  -0.28     0.16  -0.02  -0.14     0.08  -0.01   0.04
     6   6     0.16   0.03   0.11    -0.09  -0.11   0.13    -0.01  -0.00  -0.02
     7   6    -0.09   0.01  -0.10    -0.03   0.07   0.05     0.01   0.01  -0.01
     8   1     0.42   0.05   0.28    -0.16  -0.02   0.14     0.08   0.01   0.04
     9   1     0.04   0.03  -0.06     0.14   0.05  -0.31     0.06   0.02   0.03
    10   1    -0.28   0.03  -0.15    -0.11   0.48   0.20    -0.09  -0.01  -0.05
    11   6    -0.15  -0.04  -0.07    -0.01  -0.00  -0.00    -0.00  -0.00   0.04
    12   6     0.15  -0.04   0.07     0.01  -0.00   0.00    -0.00   0.00   0.04
    13   1    -0.12  -0.07  -0.08     0.01  -0.00   0.01    -0.44  -0.01  -0.19
    14   1    -0.13  -0.01  -0.08    -0.01  -0.00  -0.00     0.48   0.01   0.13
    15   1     0.13  -0.01   0.08     0.02  -0.00   0.00     0.48  -0.01   0.13
    16   1     0.12  -0.07   0.08    -0.01  -0.00  -0.01    -0.44   0.01  -0.19
                     10                     11                     12
                      A                      A                      A
 Frequencies --    646.0106               769.5995               841.8636
 Red. masses --      1.1476                 1.6191                 1.0405
 Frc consts  --      0.2822                 0.5650                 0.4345
 IR Inten    --      0.0000                 0.0000                 0.0000
  Atom  AN      X      Y      Z        X      Y      Z        X      Y      Z
     1   6    -0.00  -0.02  -0.01     0.01  -0.03  -0.00     0.00   0.00   0.00
     2   6    -0.06   0.00  -0.03    -0.14   0.02  -0.07    -0.00  -0.00   0.00
     3   1    -0.29   0.12  -0.17    -0.41   0.13  -0.22    -0.01   0.01  -0.01
     4   1     0.32  -0.07   0.25     0.32  -0.07   0.23    -0.01   0.00  -0.01
     5   1     0.33  -0.04   0.23     0.22  -0.02   0.17     0.01  -0.00   0.01
     6   6    -0.06  -0.00  -0.03     0.14   0.02   0.07    -0.00   0.00   0.00
     7   6    -0.00   0.02  -0.01    -0.01  -0.03   0.00     0.00  -0.00   0.00
     8   1     0.33   0.05   0.23    -0.22  -0.02  -0.17     0.01   0.00   0.01
     9   1     0.32   0.07   0.25    -0.32  -0.07  -0.23    -0.01  -0.00  -0.01
    10   1    -0.29  -0.12  -0.17     0.41   0.13   0.22    -0.01  -0.01  -0.01
    11   6     0.03  -0.00   0.01     0.03   0.00   0.01    -0.01   0.00   0.04
    12   6     0.03   0.00   0.01    -0.03   0.00  -0.01    -0.01  -0.00   0.04
    13   1     0.13   0.01   0.06     0.04   0.01   0.02     0.15  -0.44  -0.20
    14   1    -0.11  -0.01  -0.01     0.06  -0.02   0.03     0.05   0.43  -0.23
    15   1    -0.11   0.01  -0.01    -0.06  -0.02  -0.03     0.05  -0.43  -0.23
    16   1     0.13  -0.01   0.06    -0.04   0.01  -0.02     0.14   0.44  -0.20
                     13                     14                     15
                      A                      A                      A
 Frequencies --    877.1697               890.1009               911.1596
 Red. masses --      1.1738                 1.0976                 1.2467
 Frc consts  --      0.5321                 0.5124                 0.6098
 IR Inten    --      0.0000                 0.0000                 0.0000
  Atom  AN      X      Y      Z        X      Y      Z        X      Y      Z
     1   6     0.01   0.00   0.00    -0.03   0.02  -0.01     0.07   0.00   0.05
     2   6    -0.01   0.00   0.00     0.02   0.04   0.01    -0.02   0.00  -0.03
     3   1    -0.12   0.02  -0.05     0.24  -0.18   0.17    -0.18   0.00  -0.05
     4   1    -0.25   0.04  -0.14     0.50  -0.03   0.07    -0.47   0.07  -0.29
     5   1     0.06  -0.02   0.06    -0.06   0.01  -0.02     0.21  -0.04   0.14
     6   6     0.01   0.00  -0.00     0.02  -0.04   0.01     0.02   0.00   0.03
     7   6    -0.01   0.00  -0.00    -0.03  -0.02  -0.01    -0.07   0.00  -0.05
     8   1    -0.06  -0.02  -0.06    -0.06  -0.02  -0.03    -0.21  -0.04  -0.14
     9   1     0.23   0.04   0.14     0.50   0.03   0.08     0.47   0.08   0.29
    10   1     0.11   0.02   0.05     0.24   0.18   0.17     0.18   0.01   0.05
    11   6    -0.08   0.01  -0.02    -0.01  -0.03  -0.00     0.04  -0.01   0.02
    12   6     0.08   0.01   0.02    -0.01   0.03  -0.00    -0.04  -0.01  -0.02
    13   1     0.39  -0.08   0.15    -0.22  -0.01  -0.10    -0.21   0.02  -0.08
    14   1     0.44  -0.08   0.13    -0.20   0.03  -0.08    -0.15   0.02  -0.05
    15   1    -0.43  -0.08  -0.13    -0.21  -0.03  -0.08     0.15   0.02   0.04
    16   1    -0.38  -0.08  -0.15    -0.24   0.01  -0.11     0.20   0.02   0.08
                     16                     17                     18
                      A                      A                      A
 Frequencies --    936.3737               960.9758               996.1475
 Red. masses --      1.3878                 1.1794                 1.1307
 Frc consts  --      0.7169                 0.6417                 0.6611
 IR Inten    --      0.0000                 0.0000                 0.0000
  Atom  AN      X      Y      Z        X      Y      Z        X      Y      Z
     1   6    -0.05  -0.07  -0.05     0.01  -0.07   0.02    -0.04   0.00  -0.02
     2   6     0.05  -0.06   0.04    -0.01  -0.02  -0.04    -0.02   0.01  -0.01
     3   1     0.10   0.29  -0.13     0.32   0.09   0.08     0.40  -0.04   0.16
     4   1     0.03  -0.13   0.48    -0.31  -0.05   0.12     0.05  -0.01   0.05
     5   1    -0.24   0.10  -0.23     0.30   0.00   0.13     0.23   0.01   0.14
     6   6     0.05   0.06   0.04    -0.01   0.02  -0.04    -0.02  -0.01  -0.01
     7   6    -0.05   0.07  -0.05     0.01   0.07   0.03    -0.04  -0.00  -0.02
     8   1    -0.25  -0.10  -0.24     0.30  -0.00   0.13     0.22  -0.01   0.13
     9   1     0.04   0.13   0.48    -0.32   0.05   0.11     0.05   0.01   0.05
    10   1     0.10  -0.28  -0.13     0.32  -0.09   0.08     0.39   0.04   0.15
    11   6    -0.00   0.00   0.00     0.01  -0.02   0.00    -0.05   0.01  -0.02
    12   6    -0.00  -0.00   0.00     0.01   0.02   0.00    -0.05  -0.01  -0.02
    13   1     0.03  -0.01   0.01    -0.26   0.02  -0.11     0.30  -0.03   0.12
    14   1     0.06   0.00   0.01    -0.25   0.04  -0.09     0.34  -0.06   0.10
    15   1     0.06  -0.00   0.01    -0.25  -0.04  -0.09     0.35   0.06   0.10
    16   1     0.03   0.01   0.01    -0.26  -0.02  -0.11     0.30   0.04   0.12
                     19                     20                     21
                      A                      A                      A
 Frequencies --   1004.9407              1027.0005              1070.5169
 Red. masses --      1.1014                 1.0877                 1.5632
 Frc consts  --      0.6554                 0.6760                 1.0555
 IR Inten    --      0.0000                 0.0000                 0.0000
  Atom  AN      X      Y      Z        X      Y      Z        X      Y      Z
     1   6     0.03  -0.02   0.00     0.02  -0.02   0.00     0.01   0.11   0.02
     2   6     0.04   0.00   0.04     0.01   0.01   0.03     0.03  -0.08  -0.07
     3   1    -0.37   0.11  -0.19    -0.15   0.10  -0.10    -0.28  -0.30   0.07
     4   1    -0.04  -0.01   0.03    -0.09  -0.01   0.03     0.33   0.11  -0.31
     5   1    -0.39   0.05  -0.25    -0.15   0.02  -0.07    -0.10  -0.25  -0.03
     6   6    -0.04   0.00  -0.04    -0.01   0.01  -0.03    -0.03  -0.08   0.07
     7   6    -0.03  -0.02  -0.00    -0.02  -0.02  -0.00    -0.01   0.11  -0.02
     8   1     0.40   0.05   0.25     0.15   0.02   0.07     0.11  -0.25   0.03
     9   1     0.04  -0.01  -0.03     0.09  -0.01  -0.03    -0.33   0.11   0.31
    10   1     0.38   0.11   0.20     0.15   0.10   0.10     0.28  -0.30  -0.07
    11   6     0.01  -0.00   0.02     0.02   0.00  -0.04     0.00   0.00  -0.01
    12   6    -0.01  -0.00  -0.02    -0.02   0.00   0.04    -0.00   0.00   0.01
    13   1    -0.19  -0.01  -0.08     0.41   0.04   0.20     0.09   0.00   0.04
    14   1     0.18   0.00   0.05    -0.45  -0.05  -0.09    -0.07  -0.02  -0.01
    15   1    -0.17   0.00  -0.05     0.45  -0.05   0.09     0.07  -0.02   0.01
    16   1     0.20  -0.00   0.09    -0.41   0.04  -0.20    -0.09   0.00  -0.04
                     22                     23                     24
                      A                      A                      A
 Frequencies --   1113.6021              1188.6313              1266.1182
 Red. masses --      1.7657                 1.4585                 1.2109
 Frc consts  --      1.2901                 1.2141                 1.1437
 IR Inten    --      0.0000                 0.0000                 0.0000
  Atom  AN      X      Y      Z        X      Y      Z        X      Y      Z
     1   6     0.06   0.04  -0.05     0.00  -0.00  -0.00    -0.05  -0.00   0.07
     2   6    -0.07   0.13   0.07    -0.00  -0.00   0.00     0.02  -0.03  -0.03
     3   1     0.10   0.25  -0.12    -0.01   0.03  -0.02    -0.16  -0.18   0.10
     4   1    -0.04   0.05  -0.02     0.01   0.00  -0.02    -0.01  -0.02   0.05
     5   1     0.11   0.59  -0.09    -0.02  -0.03   0.01     0.21   0.55  -0.26
     6   6    -0.07  -0.13   0.07     0.00  -0.00  -0.00    -0.02  -0.03   0.03
     7   6     0.06  -0.03  -0.05    -0.00  -0.00   0.00     0.05  -0.00  -0.07
     8   1     0.11  -0.59  -0.09     0.02  -0.03  -0.01    -0.22   0.55   0.26
     9   1    -0.04  -0.05  -0.02    -0.01   0.00   0.02     0.01  -0.02  -0.05
    10   1     0.10  -0.24  -0.12     0.01   0.03   0.02     0.16  -0.18  -0.10
    11   6     0.00  -0.00   0.00    -0.04   0.00   0.14    -0.00   0.00   0.00
    12   6     0.00   0.00   0.00     0.04   0.00  -0.14     0.00   0.00  -0.00
    13   1    -0.04   0.00  -0.02     0.17  -0.46  -0.09     0.04  -0.02   0.01
    14   1    -0.03   0.01  -0.01    -0.09   0.44  -0.17    -0.01   0.01  -0.01
    15   1    -0.03  -0.01  -0.01     0.09   0.44   0.17     0.01   0.01   0.01
    16   1    -0.04  -0.00  -0.02    -0.17  -0.46   0.09    -0.04  -0.02  -0.01
                     25                     26                     27
                      A                      A                      A
 Frequencies --   1316.5088              1349.7644              1384.5663
 Red. masses --      1.3755                 1.3495                 1.1524
 Frc consts  --      1.4046                 1.4486                 1.3016
 IR Inten    --      0.0000                 0.0000                 0.0000
  Atom  AN      X      Y      Z        X      Y      Z        X      Y      Z
     1   6    -0.04  -0.01   0.07    -0.02   0.02   0.01    -0.01  -0.00   0.02
     2   6     0.05  -0.03  -0.07     0.00  -0.04  -0.01    -0.04  -0.05   0.05
     3   1    -0.20  -0.23   0.11    -0.01  -0.08   0.05     0.13   0.40  -0.12
     4   1    -0.02  -0.03   0.07     0.04   0.01   0.00     0.24   0.05  -0.45
     5   1     0.21   0.46  -0.27     0.09   0.16  -0.08     0.05   0.18  -0.04
     6   6     0.05   0.03  -0.07     0.00   0.04  -0.01     0.04  -0.05  -0.05
     7   6    -0.04   0.01   0.07    -0.02  -0.02   0.01     0.01  -0.00  -0.02
     8   1     0.21  -0.46  -0.27     0.09  -0.16  -0.08    -0.05   0.18   0.04
     9   1    -0.02   0.03   0.07     0.04  -0.01   0.00    -0.24   0.05   0.45
    10   1    -0.20   0.23   0.11    -0.01   0.08   0.05    -0.13   0.40   0.12
    11   6    -0.01  -0.04  -0.00     0.01   0.11   0.00     0.00  -0.00  -0.00
    12   6    -0.01   0.04  -0.00     0.01  -0.11   0.00    -0.00  -0.00   0.00
    13   1     0.06  -0.13  -0.02    -0.06   0.43   0.16    -0.02   0.03   0.01
    14   1     0.01  -0.13   0.05     0.05   0.44  -0.16     0.01   0.01  -0.01
    15   1     0.01   0.13   0.05     0.05  -0.44  -0.16    -0.01   0.01   0.01
    16   1     0.06   0.13  -0.02    -0.06  -0.43   0.16     0.02   0.03  -0.01
                     28                     29                     30
                      A                      A                      A
 Frequencies --   1413.3012              1439.3214              1521.3668
 Red. masses --      1.1161                 1.4499                 2.3171
 Frc consts  --      1.3135                 1.7697                 3.1599
 IR Inten    --      0.0000                 0.0000                 0.0000
  Atom  AN      X      Y      Z        X      Y      Z        X      Y      Z
     1   6     0.00   0.00   0.00     0.02  -0.00  -0.03     0.05   0.09  -0.09
     2   6     0.00   0.00  -0.00     0.02   0.13  -0.02    -0.06  -0.12   0.06
     3   1    -0.02  -0.01   0.00    -0.13  -0.37   0.09     0.01  -0.35   0.09
     4   1    -0.00  -0.00   0.01    -0.26  -0.05   0.45    -0.10   0.05   0.25
     5   1    -0.00  -0.01   0.00    -0.08  -0.11   0.06     0.06   0.07   0.03
     6   6    -0.00   0.00   0.00     0.02  -0.13  -0.02    -0.06   0.12   0.06
     7   6    -0.00   0.00  -0.00     0.02   0.01  -0.03     0.05  -0.09  -0.09
     8   1     0.00  -0.01  -0.00    -0.08   0.11   0.06     0.06  -0.07   0.03
     9   1     0.00  -0.00  -0.01    -0.26   0.05   0.45    -0.10  -0.05   0.25
    10   1     0.02  -0.01  -0.00    -0.14   0.37   0.09     0.01   0.35   0.09
    11   6    -0.01  -0.07  -0.00    -0.01  -0.01  -0.00     0.03   0.14   0.01
    12   6     0.01  -0.07   0.00    -0.01   0.01  -0.00     0.03  -0.14   0.01
    13   1    -0.03   0.40   0.28     0.02   0.07   0.06    -0.03  -0.22  -0.25
    14   1     0.14   0.42  -0.24     0.05   0.08  -0.04    -0.17  -0.23   0.18
    15   1    -0.14   0.42   0.24     0.05  -0.08  -0.04    -0.17   0.22   0.18
    16   1     0.02   0.40  -0.28     0.02  -0.07   0.06    -0.03   0.22  -0.25
                     31                     32                     33
                      A                      A                      A
 Frequencies --   1597.0194              1604.8994              3052.4047
 Red. masses --      3.9397                 4.3241                 1.0756
 Frc consts  --      5.9202                 6.5620                 5.9046
 IR Inten    --      0.0000                 0.0000                 0.0000
  Atom  AN      X      Y      Z        X      Y      Z        X      Y      Z
     1   6    -0.08  -0.09   0.08     0.14   0.15  -0.17    -0.00   0.00   0.00
     2   6     0.08   0.16  -0.07    -0.16  -0.16   0.18     0.03  -0.02  -0.04
     3   1     0.02   0.23  -0.02     0.00  -0.32  -0.02     0.02  -0.01  -0.04
     4   1     0.05  -0.07  -0.12    -0.13   0.12   0.28    -0.01  -0.06  -0.01
     5   1    -0.04  -0.07  -0.02     0.06   0.37  -0.01    -0.32   0.32   0.54
     6   6     0.08  -0.16  -0.07     0.16  -0.16  -0.18    -0.03  -0.03   0.04
     7   6    -0.08   0.09   0.08    -0.14   0.15   0.17     0.00   0.00  -0.00
     8   1    -0.04   0.07  -0.02    -0.06   0.37   0.01     0.32   0.32  -0.53
     9   1     0.05   0.07  -0.12     0.13   0.12  -0.28     0.01  -0.06   0.01
    10   1     0.02  -0.23  -0.02    -0.00  -0.32   0.02    -0.02  -0.01   0.04
    11   6     0.01   0.27   0.00     0.01  -0.00   0.00    -0.00   0.00   0.00
    12   6     0.01  -0.27   0.00    -0.01  -0.00  -0.00     0.00   0.00  -0.00
    13   1     0.04  -0.22  -0.30    -0.02   0.01  -0.00     0.00   0.00  -0.00
    14   1    -0.16  -0.22   0.26    -0.00   0.01  -0.01     0.00  -0.00  -0.00
    15   1    -0.16   0.22   0.26     0.00   0.01   0.01    -0.00  -0.00   0.00
    16   1     0.04   0.22  -0.30     0.02   0.01   0.00    -0.00   0.00   0.00
                     34                     35                     36
                      A                      A                      A
 Frequencies --   3064.0762              3100.8522              3102.4997
 Red. masses --      1.0837                 1.0574                 1.0590
 Frc consts  --      5.9944                 5.9905                 6.0057
 IR Inten    --      0.0000                 0.0000                 0.0000
  Atom  AN      X      Y      Z        X      Y      Z        X      Y      Z
     1   6    -0.00   0.01   0.00    -0.01  -0.04   0.01    -0.01  -0.04   0.01
     2   6     0.03  -0.03  -0.04     0.00  -0.00  -0.00     0.00  -0.00  -0.01
     3   1     0.02  -0.01  -0.04     0.06  -0.09  -0.17     0.06  -0.09  -0.17
     4   1    -0.01  -0.11  -0.01     0.03   0.52   0.06     0.03   0.52   0.07
     5   1    -0.32   0.31   0.53    -0.02   0.01   0.03    -0.03   0.04   0.06
     6   6     0.03   0.03  -0.04    -0.00  -0.00   0.00     0.00   0.00  -0.01
     7   6    -0.00  -0.01   0.00     0.01  -0.04  -0.01    -0.01   0.03   0.01
     8   1    -0.32  -0.32   0.53     0.02   0.02  -0.03    -0.03  -0.03   0.06
     9   1    -0.01   0.11  -0.01    -0.04   0.55  -0.07     0.03  -0.47   0.06
    10   1     0.02   0.01  -0.04    -0.06  -0.10   0.18     0.05   0.08  -0.16
    11   6    -0.00  -0.00   0.00     0.01   0.02  -0.01     0.01   0.03  -0.00
    12   6    -0.00   0.00   0.00    -0.01   0.02   0.01     0.01  -0.03  -0.00
    13   1     0.01   0.01  -0.02    -0.12  -0.16   0.25    -0.14  -0.18   0.28
    14   1     0.00   0.00   0.00     0.04  -0.09  -0.17     0.05  -0.14  -0.25
    15   1     0.00  -0.00   0.00    -0.04  -0.10   0.19     0.05   0.13  -0.24
    16   1     0.01  -0.01  -0.02     0.14  -0.18  -0.28    -0.13   0.17   0.27
                     37                     38                     39
                      A                      A                      A
 Frequencies --   3105.1489              3107.2191              3120.1843
 Red. masses --      1.0588                 1.0555                 1.0987
 Frc consts  --      6.0150                 6.0043                 6.3021
 IR Inten    --      0.0000                 0.0000                 0.0000
  Atom  AN      X      Y      Z        X      Y      Z        X      Y      Z
     1   6     0.00   0.03  -0.00     0.01   0.03  -0.00     0.00  -0.00  -0.01
     2   6    -0.00   0.00   0.00    -0.00   0.00   0.00     0.00  -0.00  -0.00
     3   1    -0.03   0.05   0.09    -0.03   0.05   0.08    -0.02   0.03   0.06
     4   1    -0.03  -0.41  -0.05    -0.02  -0.39  -0.05     0.00   0.00  -0.00
     5   1     0.02  -0.02  -0.03     0.01  -0.01  -0.02    -0.00   0.00   0.00
     6   6    -0.00  -0.00   0.00     0.00   0.00  -0.00    -0.00  -0.00   0.00
     7   6     0.01  -0.03  -0.00    -0.01   0.03   0.00    -0.00  -0.00   0.01
     8   1     0.02   0.02  -0.04    -0.01  -0.01   0.02     0.00   0.00  -0.00
     9   1    -0.03   0.45  -0.05     0.02  -0.37   0.04    -0.00   0.00   0.00
    10   1    -0.03  -0.06   0.10     0.03   0.04  -0.08     0.02   0.03  -0.06
    11   6     0.01   0.03  -0.00     0.01   0.03  -0.01    -0.02   0.01   0.06
    12   6     0.01  -0.03  -0.00    -0.01   0.03   0.01     0.02   0.01  -0.06
    13   1    -0.15  -0.20   0.31    -0.20  -0.26   0.41     0.13   0.19  -0.25
    14   1     0.06  -0.16  -0.29     0.06  -0.14  -0.26     0.10  -0.32  -0.51
    15   1     0.06   0.17  -0.30    -0.05  -0.12   0.23    -0.10  -0.33   0.52
    16   1    -0.17   0.22   0.34     0.19  -0.24  -0.38    -0.13   0.19   0.24
                     40                     41                     42
                      A                      A                      A
 Frequencies --   3136.6096              3139.0644              3144.9044
 Red. masses --      1.0979                 1.1057                 1.1044
 Frc consts  --      6.3639                 6.4192                 6.4354
 IR Inten    --      0.0000                 0.0000                 0.0000
  Atom  AN      X      Y      Z        X      Y      Z        X      Y      Z
     1   6    -0.02   0.04   0.05     0.01  -0.02  -0.03     0.01  -0.03  -0.04
     2   6    -0.00   0.00   0.00     0.00  -0.00  -0.00     0.00  -0.00  -0.00
     3   1     0.21  -0.24  -0.57    -0.15   0.17   0.41    -0.16   0.18   0.44
     4   1    -0.02  -0.20  -0.00     0.01   0.14   0.00     0.02   0.14   0.00
     5   1     0.02  -0.03  -0.04    -0.02   0.02   0.03    -0.03   0.03   0.05
     6   6     0.00   0.00  -0.00     0.00   0.00  -0.00     0.00   0.00  -0.00
     7   6     0.02   0.04  -0.05     0.01   0.02  -0.03     0.01   0.03  -0.04
     8   1    -0.03  -0.03   0.04    -0.02  -0.02   0.03    -0.03  -0.03   0.05
     9   1     0.02  -0.21   0.00     0.01  -0.13   0.00     0.02  -0.14   0.00
    10   1    -0.21  -0.25   0.59    -0.14  -0.17   0.39    -0.15  -0.18   0.43
    11   6    -0.00  -0.00   0.01    -0.02   0.00   0.05     0.02  -0.00  -0.05
    12   6     0.00  -0.00  -0.01    -0.02  -0.01   0.05     0.02   0.00  -0.04
    13   1     0.03   0.04  -0.06     0.11   0.16  -0.22    -0.12  -0.17   0.25
    14   1     0.01  -0.02  -0.03     0.07  -0.22  -0.35    -0.06   0.18   0.29
    15   1    -0.00  -0.02   0.03     0.07   0.22  -0.35    -0.06  -0.18   0.29
    16   1    -0.03   0.04   0.05     0.11  -0.16  -0.22    -0.12   0.17   0.24

 -------------------
 - Thermochemistry -
 -------------------
 Temperature   298.150 Kelvin.  Pressure   1.00000 Atm.
 Atom     1 has atomic number  6 and mass  12.00000
 Atom     2 has atomic number  6 and mass  12.00000
 Atom     3 has atomic number  1 and mass   1.00783
 Atom     4 has atomic number  1 and mass   1.00783
 Atom     5 has atomic number  1 and mass   1.00783
 Atom     6 has atomic number  6 and mass  12.00000
 Atom     7 has atomic number  6 and mass  12.00000
 Atom     8 has atomic number  1 and mass   1.00783
 Atom     9 has atomic number  1 and mass   1.00783
 Atom    10 has atomic number  1 and mass   1.00783
 Atom    11 has atomic number  6 and mass  12.00000
 Atom    12 has atomic number  6 and mass  12.00000
 Atom    13 has atomic number  1 and mass   1.00783
 Atom    14 has atomic number  1 and mass   1.00783
 Atom    15 has atomic number  1 and mass   1.00783
 Atom    16 has atomic number  1 and mass   1.00783
 Molecular mass:    82.07825 amu.
 Principal axes and moments of inertia in atomic units:
                           1         2         3
     Eigenvalues --   416.79236 510.14679 780.66577
           X            0.99972  -0.00076  -0.02375
           Y            0.00076   1.00000  -0.00008
           Z            0.02375   0.00006   0.99972
 This molecule is an asymmetric top.
 Rotational symmetry number  1.
 Rotational temperatures (Kelvin)      0.20781     0.16978     0.11095
 Rotational constants (GHZ):           4.33007     3.53769     2.31180
    1 imaginary frequencies ignored.
 Zero-point vibrational energy     359086.8 (Joules/Mol)
                                   85.82380 (Kcal/Mol)
 Warning -- explicit consideration of   8 degrees of freedom as
           vibrations may cause significant error
 Vibrational temperatures:    168.27   248.83   365.19   513.49   528.84
          (Kelvin)            608.00   802.80   843.08   929.47  1107.28
                             1211.25  1262.05  1280.66  1310.96  1347.23
                             1382.63  1433.23  1445.89  1477.62  1540.24
                             1602.23  1710.18  1821.66  1894.16  1942.01
                             1992.08  2033.43  2070.86  2188.91  2297.75
                             2309.09  4391.73  4408.52  4461.43  4463.81
                             4467.62  4470.60  4489.25  4512.88  4516.41
                             4524.82
 
 Zero-point correction=                           0.136769 (Hartree/Particle)
 Thermal correction to Energy=                    0.143514
 Thermal correction to Enthalpy=                  0.144459
 Thermal correction to Gibbs Free Energy=         0.106850
 Sum of electronic and zero-point Energies=            -17.675490
 Sum of electronic and thermal Energies=               -17.668745
 Sum of electronic and thermal Enthalpies=             -17.667801
 Sum of electronic and thermal Free Energies=          -17.705410
 
                     E (Thermal)             CV                S
                      KCal/Mol        Cal/Mol-Kelvin    Cal/Mol-Kelvin
 Total                   90.057             25.662             79.155
 Electronic               0.000              0.000              0.000
 Translational            0.889              2.981             39.129
 Rotational               0.889              2.981             26.609
 Vibrational             88.279             19.701             13.416
 Vibration     1          0.608              1.935              3.150
 Vibration     2          0.626              1.876              2.403
 Vibration     3          0.665              1.756              1.704
 Vibration     4          0.732              1.561              1.136
 Vibration     5          0.740              1.539              1.090
 Vibration     6          0.785              1.421              0.883
 Vibration     7          0.914              1.122              0.528
 Vibration     8          0.943              1.062              0.474
                       Q            Log10(Q)             Ln(Q)
 Total Bot       0.712290D-49        -49.147343       -113.165939
 Total V=0       0.578024D+14         13.761946         31.688052
 Vib (Bot)       0.167100D-61        -61.777025       -142.246856
 Vib (Bot)    1  0.174851D+01          0.242669          0.558767
 Vib (Bot)    2  0.116413D+01          0.066002          0.151974
 Vib (Bot)    3  0.767536D+00         -0.114901         -0.264570
 Vib (Bot)    4  0.514628D+00         -0.288507         -0.664312
 Vib (Bot)    5  0.496141D+00         -0.304395         -0.700896
 Vib (Bot)    6  0.414698D+00         -0.382268         -0.880204
 Vib (Bot)    7  0.279095D+00         -0.554248         -1.276204
 Vib (Bot)    8  0.258493D+00         -0.587551         -1.352887
 Vib (V=0)       0.135601D+02          1.132264          2.607135
 Vib (V=0)    1  0.231860D+01          0.365226          0.840963
 Vib (V=0)    2  0.176696D+01          0.247228          0.569263
 Vib (V=0)    3  0.141603D+01          0.151073          0.347857
 Vib (V=0)    4  0.121752D+01          0.085478          0.196820
 Vib (V=0)    5  0.120438D+01          0.080765          0.185967
 Vib (V=0)    6  0.114960D+01          0.060545          0.139410
 Vib (V=0)    7  0.107262D+01          0.030446          0.070104
 Vib (V=0)    8  0.106287D+01          0.026479          0.060969
 Electronic      0.100000D+01          0.000000          0.000000
 Translational   0.292278D+08          7.465796         17.190631
 Rotational      0.145843D+06          5.163886         11.890286
 ***** Axes restored to original set *****
 -------------------------------------------------------------------
 Center     Atomic                   Forces (Hartrees/Bohr)
 Number     Number              X              Y              Z
 -------------------------------------------------------------------
      1        6          -0.000000191    0.000032806   -0.000057848
      2        6          -0.000031445   -0.000028516    0.000047729
      3        1          -0.000003672   -0.000001903   -0.000008297
      4        1           0.000007454    0.000000457    0.000003128
      5        1          -0.000001273   -0.000002156    0.000003540
      6        6           0.000000242    0.000028666    0.000029525
      7        6           0.000037100   -0.000026473   -0.000023535
      8        1          -0.000003269   -0.000000827   -0.000002416
      9        1          -0.000002131   -0.000000737   -0.000001783
     10        1          -0.000002869    0.000006772   -0.000002982
     11        6           0.000057750    0.000062821   -0.000014324
     12        6          -0.000033345   -0.000070492    0.000034739
     13        1           0.000004443    0.000003985    0.000007698
     14        1          -0.000024083   -0.000003972   -0.000000656
     15        1           0.000004773   -0.000004211   -0.000002632
     16        1          -0.000009486    0.000003779   -0.000011885
 -------------------------------------------------------------------
 Cartesian Forces:  Max     0.000070492 RMS     0.000024514
 Z-matrix is all fixed cartesians, so copy forces.
 Leave Link  716 at Tue May 27 14:34:45 2025, MaxMem=   104857600 cpu:               0.0 elap:               0.4
 (Enter /mlatom/software/Gaussian/g16-avx2/l103.exe)

 GradGradGradGradGradGradGradGradGradGradGradGradGradGradGradGradGradGrad
 Berny optimization.
 Search for a local minimum.
 Step number   1 out of a maximum of    2
 All quantities printed in internal units (Hartrees-Bohrs-Radians)
 Second derivative matrix not updated -- analytic derivatives used.
 ITU=  0
     Eigenvalues ---   -0.06003   0.00110   0.00468   0.00677   0.00972
     Eigenvalues ---    0.01199   0.01540   0.01764   0.02550   0.02587
     Eigenvalues ---    0.03157   0.03278   0.03384   0.04128   0.05266
     Eigenvalues ---    0.06177   0.06528   0.07342   0.08101   0.08544
     Eigenvalues ---    0.10616   0.11741   0.12705   0.13251   0.13472
     Eigenvalues ---    0.14252   0.16004   0.18794   0.26352   0.31020
     Eigenvalues ---    0.39154   0.50171   0.53116   0.66680   0.72020
     Eigenvalues ---    0.80966   0.81541   0.88535   0.93826   1.10698
     Eigenvalues ---    1.26600   1.26601
 Eigenvalue     1 is  -6.00D-02 should be greater than     0.000000 Eigenvector:
                          X12       X11       X7        X1        Z12
   1                    0.46824   0.46777  -0.40991  -0.40964   0.15825
                          Z11       Z7        Z1        X4        X9
   1                    0.15790  -0.14785  -0.14730  -0.14408  -0.14365
 Angle between quadratic step and forces=  76.40 degrees.
 Linear search not attempted -- first point.
 B after Tr=     0.000026    0.000012    0.000012
         Rot=    1.000000    0.000000   -0.000002   -0.000004 Ang=   0.00 deg.
 Variable       Old X    -DE/DX   Delta X   Delta X   Delta X     New X
                                 (Linear)    (Quad)   (Total)
    X1        0.92292  -0.00000   0.00000  -0.00126  -0.00121   0.92171
    Y1       -2.71002   0.00003   0.00000   0.00064   0.00066  -2.70936
    Z1        0.97035  -0.00006   0.00000  -0.00057  -0.00056   0.96979
    X2        2.40094  -0.00003   0.00000  -0.00007  -0.00003   2.40091
    Y2       -1.33157  -0.00003   0.00000   0.00016   0.00019  -1.33138
    Z2       -0.59913   0.00005   0.00000   0.00022   0.00023  -0.59891
    X3        0.30193  -0.00000   0.00000  -0.00093  -0.00088   0.30105
    Y3       -1.97916  -0.00000   0.00000   0.00059   0.00061  -1.97856
    Z3        2.75948  -0.00001   0.00000  -0.00043  -0.00042   2.75906
    X4        0.79787   0.00001   0.00000  -0.00126  -0.00119   0.79668
    Y4       -4.73225   0.00000   0.00000   0.00061   0.00063  -4.73162
    Z4        0.75887   0.00000   0.00000  -0.00043  -0.00042   0.75845
    X5        3.33234  -0.00000   0.00000   0.00001   0.00005   3.33239
    Y5       -2.26011  -0.00000   0.00000  -0.00008  -0.00004  -2.26016
    Z5       -2.16493   0.00000   0.00000   0.00041   0.00041  -2.16452
    X6        2.39313   0.00000   0.00000   0.00071   0.00073   2.39386
    Y6        1.34408   0.00003   0.00000   0.00020   0.00023   1.34431
    Z6       -0.59860   0.00003   0.00000   0.00019   0.00019  -0.59841
    X7        0.90627   0.00004   0.00000   0.00117   0.00118   0.90745
    Y7        2.71315  -0.00003   0.00000   0.00072   0.00074   2.71390
    Z7        0.97089  -0.00002   0.00000  -0.00009  -0.00008   0.97081
    X8        3.31918  -0.00000   0.00000   0.00124   0.00124   3.32042
    Y8        2.27870  -0.00000   0.00000  -0.00018  -0.00014   2.27856
    Z8       -2.16395  -0.00000   0.00000   0.00026   0.00026  -2.16369
    X9        0.77038  -0.00000   0.00000   0.00137   0.00136   0.77174
    Y9        4.73483  -0.00000   0.00000   0.00069   0.00071   4.73554
    Z9        0.76070  -0.00000   0.00000  -0.00051  -0.00050   0.76020
   X10        0.29053  -0.00000   0.00000   0.00009   0.00011   0.29064
   Y10        1.97810   0.00001   0.00000   0.00106   0.00108   1.97918
   Z10        2.76015  -0.00000   0.00000  -0.00034  -0.00033   2.75982
   X11       -2.97240   0.00006   0.00000   0.00063   0.00066  -2.97174
   Y11       -1.28321   0.00006   0.00000  -0.00074  -0.00075  -1.28397
   Z11       -0.42719  -0.00001   0.00000  -0.00003  -0.00001  -0.42719
   X12       -2.97767  -0.00003   0.00000  -0.00089  -0.00088  -2.97855
   Y12        1.26930  -0.00007   0.00000  -0.00087  -0.00088   1.26842
   Z12       -0.42705   0.00003   0.00000   0.00041   0.00043  -0.42662
   X13       -3.77064   0.00000   0.00000   0.00059   0.00064  -3.77000
   Y13       -2.33386   0.00000   0.00000  -0.00113  -0.00115  -2.33501
   Z13        1.12055   0.00001   0.00000  -0.00026  -0.00023   1.12031
   X14       -2.64347  -0.00002   0.00000  -0.00052  -0.00048  -2.64395
   Y14       -2.32225  -0.00000   0.00000  -0.00027  -0.00029  -2.32253
   Z14       -2.14342  -0.00000   0.00000  -0.00055  -0.00052  -2.14394
   X15       -2.65551   0.00000   0.00000  -0.00077  -0.00077  -2.65628
   Y15        2.30988  -0.00000   0.00000  -0.00036  -0.00037   2.30950
   Z15       -2.14363  -0.00000   0.00000   0.00073   0.00075  -2.14288
   X16       -3.78180  -0.00001   0.00000  -0.00054  -0.00053  -3.78233
   Y16        2.31573   0.00000   0.00000  -0.00121  -0.00123   2.31450
   Z16        1.12058  -0.00001   0.00000   0.00078   0.00081   1.12139
         Item               Value     Threshold  Converged?
 Maximum Force            0.000070     0.000450     YES
 RMS     Force            0.000025     0.000300     YES
 Maximum Displacement     0.001359     0.001800     YES
 RMS     Displacement     0.000687     0.001200     YES
 Predicted change in Energy=-9.519004D-08
 Optimization completed.
    -- Stationary point found.
 GradGradGradGradGradGradGradGradGradGradGradGradGradGradGradGradGradGrad

 Leave Link  103 at Tue May 27 14:34:45 2025, MaxMem=   104857600 cpu:               0.0 elap:               0.1
 (Enter /mlatom/software/Gaussian/g16-avx2/l9999.exe)
 1\1\GINC-B002\Freq\RExternal='/mlatom/software/miniconda3/bin/python /
 mlatom/software/mlatom_xacs/ml\ZDO\C6H10\UNKNOWN\27-May-2025\0\\#p Fre
 q external='/mlatom/software/miniconda3/bin/python /mlatom/software/ml
 atom_xacs/mlatom/interfaces/gaussian_interface.py model_predict_kwargs
 '\\f16c7a25-20e7-44a4-b5b9-01b9e5211719\\0,1\C,0.4883890318,-1.4340787
 969,0.5134845243\C,1.2705246536,-0.7046373768,-0.3170477238\H,0.159773
 1398,-1.0473273795,1.460255994\H,0.4222135982,-2.5041967574,0.40157472
 51\H,1.7633999947,-1.1960004737,-1.1456330516\C,1.2663898285,0.7112568
 74,-0.3167667504\C,0.4795794657,1.4357391624,0.5137725094\H,1.75643435
 34,1.2058364624,-1.1451138158\H,0.4076685452,2.5055650964,0.4025477247
 \H,0.1537430204,1.0467660687,1.4606068203\C,-1.5729266801,-0.679047898
 6,-0.2260568779\C,-1.5757152298,0.671684211,-0.2259832419\H,-1.9953379
 071,-1.2350250082,0.5929684046\H,-1.3988623509,-1.2288807322,-1.134247
 1497\H,-1.4052364315,1.2223343344,-1.1343607005\H,-2.0012423797,1.2254
 313386,0.5929864111\\Version=ES64L-G16RevA.03\HF=-17.8122593\RMSD=0.00
 0e+00\RMSF=2.451e-05\ZeroPoint=0.1367689\Thermal=0.1435144\Dipole=-0.1
 855354,0.,0.1931601\PG=C01 [X(C6H10)]\NImag=1\\0.22393600,0.12946941,0
 .61488281,-0.25015579,-0.01782106,0.53905619,-0.15319295,-0.12846682,0
 .15797857,0.33824628,-0.07361605,-0.17912601,0.10825832,0.05583646,0.6
 1657899,0.13855664,0.12480909,-0.21533057,-0.27547180,-0.01579962,0.48
 517356,-0.04503207,0.02847949,0.07419650,-0.01191405,-0.00062307,0.020
 79043,0.06367648,0.02537884,-0.08044641,-0.08881255,-0.00247360,0.0096
 1867,0.01088381,-0.03138405,0.09027117,0.08417350,-0.08951600,-0.24999
 377,0.00790101,-0.01037072,-0.01802047,-0.09116020,0.09917234,0.273300
 03,-0.03441660,-0.01345634,0.00391401,-0.00159290,-0.01874451,-0.00160
 237,0.00178609,0.00882674,0.00263528,0.03335808,-0.01716128,-0.3022793
 0,-0.03198244,-0.00226309,-0.02086748,-0.00051542,-0.00035868,-0.01327
 201,-0.00308006,0.02196520,0.33733739,0.00429777,-0.03314251,-0.044984
 85,0.00200974,0.01946057,0.00064077,-0.00000216,-0.02532939,-0.0041388
 1,-0.00924060,0.03334139,0.04771850,-0.00677176,0.00694046,0.01658668,
 -0.09010614,0.04619552,0.09163344,0.00442841,-0.00330107,0.00486140,-0
 .00246117,0.00128587,-0.00191535,0.09248459,-0.00692453,0.00593500,0.0
 1250859,0.05022177,-0.09547529,-0.08895302,-0.00273782,-0.00062316,0.0
 0207509,-0.00022269,0.00109663,0.00127693,-0.05492673,0.11339667,0.013
 69475,-0.00640825,-0.02099674,0.09180021,-0.09242968,-0.18693601,0.007
 40476,0.00105331,0.00080824,-0.00281733,0.00010698,-0.00059510,-0.1118
 6709,0.09720075,0.20793037,0.00758777,-0.01431768,-0.00291869,-0.05593
 008,-0.01640645,0.01791620,-0.00383334,0.00126534,-0.00228546,0.004262
 20,-0.00362330,0.00571704,-0.00005298,0.01351826,0.00198621,0.33905032
 ,-0.05845084,-0.04398712,0.02750723,0.01764831,-0.26647189,-0.03514260
 ,0.00492398,-0.00101123,0.00129615,-0.00186609,-0.00102562,0.00169319,
 0.00498528,-0.01813560,0.00000197,-0.05737325,0.61587398,-0.01596787,0
 .01595762,0.00805319,0.01772153,0.03515390,-0.07997341,-0.00058303,-0.
 00025334,0.00047384,0.00709354,0.00107889,0.00130876,0.00152620,-0.023
 12609,-0.00232157,-0.27557652,0.01415316,0.48501263,-0.03660172,-0.005
 06854,0.00770157,0.00717584,0.05879155,-0.01588052,0.00320579,-0.00145
 265,0.00195113,-0.00062667,-0.00025249,0.00000426,0.00477228,-0.000239
 13,0.00232849,-0.15437809,0.07363979,0.13922115,0.22526665,0.00485105,
 0.00059733,-0.00584751,0.01461815,-0.04353302,-0.01606281,-0.00025328,
 -0.00164525,-0.00068544,0.00084326,0.00019218,-0.00014135,-0.00049906,
 -0.00594218,-0.00088134,0.12857295,-0.17780788,-0.12389597,-0.13155905
 ,0.61335524,0.00763423,0.00589200,-0.00593185,-0.00275039,-0.02749430,
 0.00802305,-0.00062324,0.00250541,0.00012226,-0.00031452,0.00041491,-0
 .00030892,0.00139953,0.00025714,0.00187803,0.15866940,-0.10727746,-0.2
 1529100,-0.25019755,0.01637482,0.53904892,0.00476367,0.00056222,0.0013
 9856,0.00005499,-0.00487533,0.00138858,-0.00032760,-0.00003489,-0.0002
 8325,0.00009839,0.00008564,-0.00002460,-0.00071591,0.00057872,-0.00137
 696,-0.08954472,-0.04620635,0.09110264,-0.00677367,-0.00702152,0.01666
 942,0.09185721,0.00029808,-0.00593804,-0.00025335,-0.01341055,-0.01825
 118,0.02312967,0.00026886,-0.00001015,-0.00031404,-0.00134697,-0.00078
 280,0.00064011,-0.00058482,0.00045078,0.00088549,-0.05023012,-0.096112
 61,0.08952333,0.00684510,0.00593603,-0.01240086,0.05484926,0.11411784,
 0.00232328,0.00089338,0.00187715,0.00197916,0.00000312,-0.00231383,-0.
 00043352,-0.00044194,0.00018520,0.00029896,0.00012446,-0.00003391,-0.0
 0137303,-0.00089308,0.00034579,0.09125876,0.09300149,-0.18685053,0.013
 65828,0.00649809,-0.02099010,-0.11129105,-0.09789207,0.20783431,-0.000
 61467,-0.00084642,-0.00031284,0.00422033,0.00188610,0.00710511,0.00023
 580,-0.00008745,0.00004753,-0.00032214,0.00012641,-0.00042604,0.000090
 23,0.00135277,0.00029979,-0.00172147,0.01888262,-0.00158689,-0.0345761
 0,0.01487385,0.00373685,-0.00245293,0.00020327,-0.00281595,0.03363571,
 0.00024979,0.00018888,-0.00041767,0.00364995,-0.00099677,-0.00103704,0
 .00018634,0.00028200,-0.00022869,-0.00012904,0.00011065,-0.00023644,-0
 .00008010,-0.00077489,-0.00012255,0.00236669,-0.02073176,0.00049715,0.
 01859962,-0.30213649,0.03183679,-0.00130495,0.00109088,-0.00012234,-0.
 02359209,0.33711918,0.00000870,0.00014389,-0.00031078,0.00572380,-0.00
 166776,0.00131101,0.00012130,-0.00039310,0.00034701,-0.00042807,0.0002
 3399,-0.00005499,-0.00002095,-0.00064011,-0.00003438,0.00211221,-0.019
 44165,0.00063636,0.00413434,0.03299076,-0.04495698,-0.00190745,-0.0012
 8753,-0.00059578,-0.00906093,-0.03321002,0.04768523,0.00319272,0.00028
 372,-0.00061103,-0.00379527,-0.00494091,-0.00058384,0.00056471,0.00032
 010,-0.00042994,0.00023715,-0.00018668,0.00011928,-0.00032665,-0.00027
 066,-0.00043631,-0.01194146,0.00049346,0.02087481,-0.04461319,-0.02825
 484,0.07354977,0.00438394,0.00276581,0.00741124,0.00182877,0.00044126,
 -0.00014117,0.06326728,0.00147946,-0.00163429,-0.00250958,-0.00128009,
 -0.00104721,0.00025021,-0.00029942,-0.00301624,0.00065811,0.00008645,0
 .00028185,0.00039409,0.00003331,-0.00001175,0.00043946,0.00233857,0.00
 963590,-0.01075241,-0.02514661,-0.08081804,0.08930134,0.00332693,-0.00
 058635,-0.00101070,-0.00872953,-0.01333112,0.02533169,0.03120676,0.090
 69779,0.00194535,0.00069789,0.00011884,-0.00227668,-0.00131149,0.00047
 455,-0.00042684,-0.00066137,0.00106703,0.00004690,0.00022880,0.0003473
 0,-0.00028521,0.00031226,0.00018548,0.00783498,0.01042517,-0.01801773,
 0.08354641,0.09006196,-0.24999733,0.00487026,-0.00204622,0.00080501,0.
 00260863,0.00308910,-0.00412488,-0.09043555,-0.09976424,0.27331452,0.0
 4295943,-0.00703988,-0.00227607,-0.02523235,-0.03082081,0.01386630,-0.
 00901009,0.00239556,-0.00575316,0.00069658,0.00001959,-0.00006467,-0.0
 0143740,-0.00013434,-0.00066778,-0.01088468,0.02367285,0.00891053,0.02
 170295,-0.00273834,-0.00189563,-0.00060961,0.00018667,-0.00059217,-0.0
 0048881,-0.00016356,-0.00026707,-0.00217216,-0.00075034,-0.00175155,0.
 13120484,-0.05265358,-0.00465584,0.00098619,0.01847056,0.03318696,-0.0
 1637544,0.00529753,-0.00068287,0.00360338,0.00229133,-0.00082741,0.001
 35527,0.00153019,0.00006536,0.00100141,0.01219703,-0.03326910,-0.01495
 579,-0.04484837,-0.00443008,0.00256181,0.00153206,-0.00003890,0.000907
 51,-0.00102990,-0.00011830,-0.00029259,0.00339755,0.00061748,0.0022598
 4,0.08268960,0.71206790,0.01485137,-0.00302839,-0.00767542,-0.00492136
 ,-0.00879970,0.00409080,-0.00667267,0.00137280,-0.00440673,0.00051846,
 -0.00027389,0.00034561,-0.00033536,-0.00008734,-0.00071086,-0.00104991
 ,0.00922307,0.00427928,0.00833012,-0.00135184,-0.00160597,-0.00021275,
 -0.00001719,-0.00015984,0.00001231,-0.00011649,-0.00023554,-0.00152787
 ,-0.00085608,-0.00093720,-0.15341335,0.02791525,0.52701630,0.02152093,
 0.00286280,-0.00190587,-0.01069241,-0.02363393,0.00885643,-0.00216250,
 0.00073597,-0.00174437,-0.00048489,0.00015733,-0.00026500,-0.00060328,
 -0.00019016,-0.00059028,-0.02544491,0.03059033,0.01385641,0.04286788,0
 .00730138,-0.00225241,-0.00143476,0.00012672,-0.00066662,0.00069286,-0
 .00001500,-0.00006895,-0.00900104,-0.00244788,-0.00576011,-0.05328594,
 0.03613524,0.00838306,0.13193300,0.04481600,-0.00413883,-0.00261458,-0
 .01202546,-0.03345010,0.01496882,-0.00340356,0.00060072,-0.00226156,0.
 00103227,-0.00011358,0.00029649,-0.00153485,-0.00005039,-0.00090925,-0
 .01885154,0.03326445,0.01649485,0.05309772,-0.00435679,-0.00095139,-0.
 00153852,0.00005521,-0.00100751,-0.00231177,-0.00084881,-0.00137334,-0
 .00534464,-0.00072377,-0.00364049,-0.03438061,-0.44216127,-0.01309178,
 -0.08551453,0.71109565,0.00834053,0.00139073,-0.00161084,-0.00100511,-
 0.00925529,0.00428348,-0.00152687,0.00084412,-0.00093831,0.00001697,0.
 00011526,-0.00023475,-0.00021652,0.00001580,-0.00016449,-0.00500339,0.
 00880708,0.00411855,0.01493508,0.00312022,-0.00769930,-0.00033942,0.00
 008543,-0.00071571,0.00051174,0.00027447,0.00034257,-0.00669737,-0.001
 41525,-0.00443124,0.00831834,0.01315527,-0.07919401,-0.15317644,-0.028
 78583,0.52704099,-0.01115951,-0.00012811,0.00124622,0.00110815,0.00297
 461,-0.00158062,-0.00187390,-0.00037490,-0.00027349,-0.00033336,0.0002
 8187,0.00008666,0.00039295,0.00002643,0.00010684,0.00074895,-0.0031347
 0,-0.00109610,-0.00326490,-0.00024204,0.00015772,0.00022848,0.00010661
 ,0.00003518,-0.00005747,0.00010036,-0.00005787,0.00011778,-0.00011838,
 0.00014257,-0.06519243,-0.06354048,0.08849417,0.00140268,0.00544805,0.
 00143642,0.07488456,0.00135972,0.00070721,0.00039932,-0.00016813,-0.00
 040645,-0.00005552,-0.00009894,0.00029369,-0.00022295,0.00039341,-0.00
 008963,-0.00014167,-0.00000394,0.00000275,-0.00007311,0.00003375,0.000
 20754,0.00002428,0.00010287,-0.00042260,0.00031738,0.00007808,-0.00000
 084,-0.00012639,0.00000083,0.00016646,-0.00007995,-0.00005696,-0.00006
 755,-0.00007565,-0.05500102,-0.10951016,0.09987868,-0.01059735,-0.0208
 7105,0.02545343,0.05983378,0.12838468,-0.00339366,0.00005448,0.0000501
 4,0.00031434,0.00087876,-0.00056377,-0.00172190,0.00005971,0.00058935,
 0.00005845,-0.00022120,-0.00003008,0.00003462,0.00000175,0.00028049,0.
 00014121,-0.00108731,-0.00039057,-0.00132872,-0.00027152,-0.00012812,-
 0.00000343,-0.00008533,0.00011065,-0.00009825,-0.00006471,-0.00002267,
 0.00001185,0.00001372,0.00021598,0.08759031,0.09880756,-0.20036125,0.0
 0115792,0.00613326,-0.00151004,-0.09386680,-0.11552786,0.21981401,-0.0
 0971734,0.00001869,-0.00539614,0.00004853,0.00243910,-0.00276603,-0.00
 018664,0.00008447,0.00010126,0.00000269,0.00005926,-0.00021405,0.00001
 300,0.00005863,0.00012368,0.00088316,-0.00238700,-0.00113136,-0.003192
 06,-0.00049835,0.00038930,0.00006365,0.00000557,-0.00002502,-0.0001445
 3,0.00003301,-0.00002290,0.00032574,0.00001972,0.00011473,-0.03144396,
 0.01139558,0.04513292,0.00175587,0.00757234,0.00098483,-0.00145791,0.0
 0525189,0.01034324,0.03854983,0.00126579,0.00072740,0.00064217,-0.0002
 7267,-0.00006638,0.00009391,0.00001266,-0.00022096,-0.00003771,0.00032
 988,-0.00004720,0.00040122,-0.00000252,0.00012109,0.00008360,0.0000587
 8,0.00007004,0.00015925,0.00023208,-0.00041430,-0.00027140,-0.00003839
 ,-0.00005392,0.00007491,-0.00000005,0.00012142,-0.00005311,0.00007026,
 -0.00007018,0.00016445,0.01848765,-0.10835060,-0.11200531,0.00726649,-
 0.02096104,-0.02668640,-0.00244734,0.00619049,0.01176854,-0.02450417,0
 .12756242,-0.00405350,-0.00015277,-0.00222700,0.00041006,0.00114820,-0
 .00009569,0.00031472,0.00009946,0.00026110,-0.00007456,0.00042896,-0.0
 0000455,-0.00002633,0.00004539,0.00017415,0.00045774,-0.00113479,-0.00
 037432,-0.00092755,0.00002939,0.00002939,0.00000074,0.00007939,0.00004
 564,-0.00000638,0.00006495,0.00004845,0.00031166,0.00008718,0.00012805
 ,0.04554636,-0.11655655,-0.23731276,0.00127414,-0.00176871,-0.00161515
 ,0.00515294,-0.01068896,-0.02133577,-0.04858870,0.12722128,0.25883214,
 -0.00319038,0.00048190,0.00038945,0.00087021,0.00239569,-0.00113104,0.
 00032574,-0.00001815,0.00011560,-0.00014507,-0.00003441,-0.00002356,0.
 00006361,-0.00000483,-0.00002440,0.00006988,-0.00244238,-0.00277595,-0
 .00974101,-0.00006436,-0.00541957,0.00001373,-0.00005928,0.00012441,0.
 00000554,-0.00005836,-0.00021226,-0.00019102,-0.00008548,0.00009875,0.
 00181523,-0.00749884,0.00086961,-0.03122484,-0.01086373,0.04438609,0.0
 0832653,-0.00105027,0.00272405,-0.00382814,0.00063562,-0.00177728,0.03
 827306,-0.00024516,-0.00041139,0.00027334,-0.00005476,0.00008304,-0.00
 016449,-0.00006777,-0.00007053,-0.00016373,-0.00000050,0.00012076,0.00
 005307,0.00003939,-0.00005332,-0.00007508,0.00027484,-0.00007691,-0.00
 010707,-0.00131819,0.00072211,-0.00067224,0.00000124,0.00012140,-0.000
 08291,-0.00033092,-0.00004808,-0.00040386,-0.00001487,-0.00022169,0.00
 003750,-0.00714484,-0.02103270,0.02668980,-0.01800298,-0.10847975,0.11
 224071,0.00116088,-0.00577214,0.00064067,-0.00066040,0.00116557,0.0009
 1808,0.02396086,0.12777899,-0.00092666,-0.00003549,0.00003167,0.000451
 04,0.00113885,-0.00037360,0.00031054,-0.00008566,0.00012805,-0.0000064
 5,-0.00006470,0.00004856,0.00000177,-0.00007968,0.00004656,0.00042111,
 -0.00114799,-0.00009708,-0.00406883,0.00013560,-0.00224040,-0.00002643
 ,-0.00004549,0.00017484,-0.00007205,-0.00042911,-0.00000503,0.00031212
 ,-0.00009960,0.00026201,0.00126187,0.00176809,-0.00161160,0.04479958,0
 .11680015,-0.23739094,0.00198292,-0.00017232,0.00237968,-0.00176994,-0
 .00092696,0.00106456,-0.04775671,-0.12746654,0.25892018,-0.00326351,0.
 00022511,0.00016484,0.00073179,0.00314205,-0.00109693,0.00011718,0.000
 11976,0.00014316,-0.00005840,-0.00010124,-0.00005872,0.00023021,-0.000
 10568,0.00003541,0.00112946,-0.00297601,-0.00158911,-0.01122399,0.0000
 7020,0.00124708,0.00039515,-0.00002422,0.00010809,-0.00033112,-0.00028
 393,0.00008726,-0.00187730,0.00036653,-0.00027266,0.00137839,-0.005365
 50,0.00154125,-0.06583868,0.06380284,0.08903513,-0.00387059,-0.0000777
 1,-0.00196322,0.00832811,-0.00109407,0.00198593,-0.00144307,0.00240317
 ,0.00508612,0.07559637,-0.00011668,-0.00042140,-0.00031642,-0.00003003
 ,0.00022411,-0.00002955,0.00005774,-0.00006743,0.00007585,-0.00000239,
 0.00016557,0.00007903,-0.00007695,-0.00000172,0.00012629,0.00017613,-0
 .00042219,0.00004822,-0.00142367,0.00070373,-0.00039396,0.00000579,0.0
 0000266,0.00007399,-0.00039772,-0.00009323,0.00014270,0.00009065,0.000
 29517,0.00022250,0.01072182,-0.02086046,-0.02545158,0.05522558,-0.1088
 6066,-0.09935974,0.00005335,0.00118759,-0.00110052,0.00111166,-0.00577
 384,0.00017949,-0.00529397,0.00617464,0.01071085,-0.06010131,0.1277474
 5,-0.00132865,0.00026540,-0.00012534,0.00013590,0.00108683,-0.00038986
 ,0.00001218,-0.00001362,0.00021598,-0.00009868,0.00006409,-0.00002354,
 -0.00000380,0.00008562,0.00011005,0.00031910,-0.00087672,-0.00056641,-
 0.00340768,-0.00007304,0.00004833,0.00003513,-0.00000132,0.00028111,0.
 00005737,0.00022259,-0.00002960,-0.00172766,-0.00006796,0.00058962,0.0
 0118773,-0.00614119,-0.00152080,0.08810250,-0.09828913,-0.20028082,-0.
 00196677,0.00109130,0.00090196,0.00272418,-0.00062846,0.00238177,0.010
 41280,-0.01171727,-0.02133746,-0.09445363,0.11499286,0.21974501\\0.000
 00019,-0.00003281,0.00005785,0.00003144,0.00002852,-0.00004773,0.00000
 367,0.00000190,0.00000830,-0.00000745,-0.00000046,-0.00000313,0.000001
 27,0.00000216,-0.00000354,-0.00000024,-0.00002867,-0.00002953,-0.00003
 710,0.00002647,0.00002353,0.00000327,0.00000083,0.00000242,0.00000213,
 0.00000074,0.00000178,0.00000287,-0.00000677,0.00000298,-0.00005775,-0
 .00006282,0.00001432,0.00003334,0.00007049,-0.00003474,-0.00000444,-0.
 00000399,-0.00000770,0.00002408,0.00000397,0.00000066,-0.00000477,0.00
 000421,0.00000263,0.00000949,-0.00000378,0.00001189\\\@


 AN AIRPLANE IS A COLLECTION OF SPARE PARTS
 FLYING IN CLOSE FORMATION.
 Job cpu time:       0 days  0 hours  0 minutes  0.6 seconds.
 Elapsed time:       0 days  0 hours  0 minutes  3.6 seconds.
 File lengths (MBytes):  RWF=     22 Int=      0 D2E=      0 Chk=      2 Scr=      2
 Normal termination of Gaussian 16 at Tue May 27 14:34:45 2025.
